 vasp.5.4.1 05Feb16 (build Mar 19 2020 08:54:17) complex                        
  
 executed on           IFC91_ompi date 2021.11.18  10:49:54
 running on   96 total cores
 distrk:  each k-point on   96 cores,    1 groups
 distr:  one band on NCORES_PER_BAND=  24 cores,    4 groups


--------------------------------------------------------------------------------------------------------


 INCAR:
 POTCAR:    PAW_PBE Al 04Jan2001                  
 POTCAR:    PAW_PBE Nb_sv 25May2007               
 POTCAR:    PAW_PBE Ta 17Jan2003                  
 POTCAR:    PAW_PBE Ti 08Apr2002                  
 POTCAR:   PAW_PBE Zr 08Apr2002                   
 POTCAR:    PAW_PBE O 08Apr2002                   

 ----------------------------------------------------------------------------- 
|                                                                             |
|           W    W    AA    RRRRR   N    N  II  N    N   GGGG   !!!           |
|           W    W   A  A   R    R  NN   N  II  NN   N  G    G  !!!           |
|           W    W  A    A  R    R  N N  N  II  N N  N  G       !!!           |
|           W WW W  AAAAAA  RRRRR   N  N N  II  N  N N  G  GGG   !            |
|           WW  WW  A    A  R   R   N   NN  II  N   NN  G    G                |
|           W    W  A    A  R    R  N    N  II  N    N   GGGG   !!!           |
|                                                                             |
|      For optimal performance we recommend to set                            |
|        NCORE= 4 - approx SQRT( number of cores)                             |
|      NCORE specifies how many cores store one orbital (NPAR=cpu/NCORE).     |
|      This setting can  greatly improve the performance of VASP for DFT.     |
|      The default, NPAR=number of cores might be grossly inefficient         |
|      on modern multi-core architectures or massively parallel machines.     |
|      Do your own testing !!!!                                               |
|      Unfortunately you need to use the default for GW and RPA calculations. |
|      (for HF NCORE is supported but not extensively tested yet)             |
|                                                                             |
 ----------------------------------------------------------------------------- 

 POTCAR:    PAW_PBE Al 04Jan2001                  
   VRHFIN =Al: s2p1                                                             
   LEXCH  = PE                                                                  
   EATOM  =    53.5387 eV,    3.9350 Ry                                         
                                                                                
   TITEL  = PAW_PBE Al 04Jan2001                                                
   LULTRA =        F    use ultrasoft PP ?                                      
   IUNSCR =        1    unscreen: 0-lin 1-nonlin 2-no                           
   RPACOR =    1.500    partial core radius                                     
   POMASS =   26.981; ZVAL   =    3.000    mass and valenz                      
   RCORE  =    1.900    outmost cutoff radius                                   
   RWIGS  =    2.650; RWIGS  =    1.402    wigner-seitz radius (au A)           
   ENMAX  =  240.300; ENMIN  =  180.225 eV                                      
   ICORE  =        2    local potential                                         
   LCOR   =        T    correct aug charges                                     
   LPAW   =        T    paw PP                                                  
   EAUG   =  291.052                                                            
   DEXC   =    0.000                                                            
   RMAX   =    1.939    core radius for proj-oper                               
   RAUG   =    1.300    factor for augmentation sphere                          
   RDEP   =    1.966    radius for radial grids                                 
   RDEPT  =    1.856    core radius for aug-charge                              
                                                                                
   Atomic configuration                                                         
    6 entries                                                                   
     n  l   j            E        occ.                                          
     1  0  0.50     -1511.1048   2.0000                                         
     2  0  0.50      -108.1629   2.0000                                         
     2  1  1.50       -69.6402   6.0000                                         
     3  0  0.50        -7.7528   2.0000                                         
     3  1  1.50        -2.7121   1.0000                                         
     3  2  2.50        -2.7212   0.0000                                         
   Description                                                                  
     l       E           TYP  RCUT    TYP  RCUT                                 
     0     -7.7528455     23  1.900                                             
     0     -3.3096929     23  1.900                                             
     1     -2.7120682     23  1.900                                             
     1     13.6058260     23  1.900                                             
     2     -2.7211652      7  1.900                                             
  local pseudopotential read in
  partial core-charges read in
  partial kinetic energy density read in
  atomic valenz-charges read in
  non local Contribution for L=           0  read in
    real space projection operators read in
  non local Contribution for L=           0  read in
    real space projection operators read in
  non local Contribution for L=           1  read in
    real space projection operators read in
  non local Contribution for L=           1  read in
    real space projection operators read in
    PAW grid and wavefunctions read in
 
   number of l-projection  operators is LMAX  =           4
   number of lm-projection operators is LMMAX =           8
 
 POTCAR:    PAW_PBE Nb_sv 25May2007               
   VRHFIN =Nb: 4p5s4d                                                           
   LEXCH  = PE                                                                  
   EATOM  =  1555.1913 eV,  114.3033 Ry                                         
                                                                                
   TITEL  = PAW_PBE Nb_sv 25May2007                                             
   LULTRA =        F    use ultrasoft PP ?                                      
   IUNSCR =        1    unscreen: 0-lin 1-nonlin 2-no                           
   RPACOR =    1.800    partial core radius                                     
   POMASS =   92.910; ZVAL   =   13.000    mass and valenz                      
   RCORE  =    2.400    outmost cutoff radius                                   
   RWIGS  =    2.400; RWIGS  =    1.270    wigner-seitz radius (au A)           
   ENMAX  =  293.235; ENMIN  =  219.927 eV                                      
   ICORE  =        3    local potential                                         
   LCOR   =        T    correct aug charges                                     
   LPAW   =        T    paw PP                                                  
   EAUG   =  455.659                                                            
   DEXC   =    0.000                                                            
   RMAX   =    2.456    core radius for proj-oper                               
   RAUG   =    1.300    factor for augmentation sphere                          
   RDEP   =    2.451    radius for radial grids                                 
   RDEPT  =    1.956    core radius for aug-charge                              
                                                                                
   Atomic configuration                                                         
   11 entries                                                                   
     n  l   j            E        occ.                                          
     1  0  0.50    -18805.2457   2.0000                                         
     2  0  0.50     -2630.2869   2.0000                                         
     2  1  1.50     -2348.4046   6.0000                                         
     3  0  0.50      -438.8757   2.0000                                         
     3  1  1.50      -346.7588   6.0000                                         
     3  2  2.50      -196.2560  10.0000                                         
     4  0  0.50       -58.3859   2.0000                                         
     5  0  0.50        -3.9816   1.0000                                         
     4  1  1.50       -34.5141   6.0000                                         
     4  2  2.50        -3.0408   4.0000                                         
     4  3  2.50        -1.3606   0.0000                                         
   Description                                                                  
     l       E           TYP  RCUT    TYP  RCUT                                 
     0    -58.3859094     23  2.200                                             
     0     -3.9816262     23  2.200                                             
     1    -34.5140738     23  2.200                                             
     1     13.6058260     23  2.200                                             
     2     -3.0408010     23  2.200                                             
     2     -0.1283038     23  2.200                                             
     3     -1.3605826     23  2.400                                             
  local pseudopotential read in
  partial core-charges read in
  partial kinetic energy density read in
  atomic valenz-charges read in
  non local Contribution for L=           0  read in
    real space projection operators read in
  non local Contribution for L=           0  read in
    real space projection operators read in
  non local Contribution for L=           1  read in
    real space projection operators read in
  non local Contribution for L=           1  read in
    real space projection operators read in
  non local Contribution for L=           2  read in
    real space projection operators read in
  non local Contribution for L=           2  read in
    real space projection operators read in
    PAW grid and wavefunctions read in
 
   number of l-projection  operators is LMAX  =           6
   number of lm-projection operators is LMMAX =          18
 
 POTCAR:    PAW_PBE Ta 17Jan2003                  
   VRHFIN =Ta:  6s5d                                                            
   LEXCH  = PE                                                                  
   EATOM  =   130.6506 eV,    9.6025 Ry                                         
                                                                                
   TITEL  = PAW_PBE Ta 17Jan2003                                                
   LULTRA =        F    use ultrasoft PP ?                                      
   IUNSCR =        1    unscreen: 0-lin 1-nonlin 2-no                           
   RPACOR =    2.330    partial core radius                                     
   POMASS =  180.948; ZVAL   =    5.000    mass and valenz                      
   RCORE  =    2.900    outmost cutoff radius                                   
   RWIGS  =    2.840; RWIGS  =    1.503    wigner-seitz radius (au A)           
   ENMAX  =  223.667; ENMIN  =  167.750 eV                                      
   RCLOC  =    2.205    cutoff for local pot                                    
   LCOR   =        T    correct aug charges                                     
   LPAW   =        T    paw PP                                                  
   EAUG   =  332.075                                                            
   DEXC   =    0.000                                                            
   RMAX   =    2.970    core radius for proj-oper                               
   RAUG   =    1.300    factor for augmentation sphere                          
   RDEP   =    3.060    radius for radial grids                                 
   RDEPT  =    2.354    core radius for aug-charge                              
                                                                                
   Atomic configuration                                                         
   16 entries                                                                   
     n  l   j            E        occ.                                          
     1  0  0.50    -67341.2807   2.0000                                         
     2  0  0.50    -11566.9376   2.0000                                         
     2  1  1.50    -10134.1182   6.0000                                         
     3  0  0.50     -2648.5620   2.0000                                         
     3  1  1.50     -2222.6012   6.0000                                         
     3  2  2.50     -1726.3120  10.0000                                         
     4  0  0.50      -538.6961   2.0000                                         
     4  1  1.50      -399.0129   6.0000                                         
     4  2  2.50      -220.3959  10.0000                                         
     4  3  3.50       -23.0374  14.0000                                         
     5  0  0.50       -71.2901   2.0000                                         
     5  1  1.50       -37.8225   6.0000                                         
     5  2  2.50        -2.6455   4.0000                                         
     6  0  0.50        -4.9623   1.0000                                         
     6  1  1.50        -1.3606   0.0000                                         
     5  3  2.50        -1.3606   0.0000                                         
   Description                                                                  
     l       E           TYP  RCUT    TYP  RCUT                                 
     2     -2.6455043     23  2.500                                             
     2     -0.6258895     23  2.500                                             
     0     -4.9622780     23  2.500                                             
     0      4.7531321     23  2.500                                             
     1     -1.3605826     23  2.900                                             
     1     27.2116520     23  2.900                                             
  local pseudopotential read in
  partial core-charges read in
  partial kinetic energy density read in
  atomic valenz-charges read in
  non local Contribution for L=           2  read in
    real space projection operators read in
  non local Contribution for L=           2  read in
    real space projection operators read in
  non local Contribution for L=           0  read in
    real space projection operators read in
  non local Contribution for L=           0  read in
    real space projection operators read in
  non local Contribution for L=           1  read in
    real space projection operators read in
  non local Contribution for L=           1  read in
    real space projection operators read in
    PAW grid and wavefunctions read in
 
   number of l-projection  operators is LMAX  =           6
   number of lm-projection operators is LMMAX =          18
 
 POTCAR:    PAW_PBE Ti 08Apr2002                  
   VRHFIN =Ti: d3 s1                                                            
   LEXCH  = PE                                                                  
   EATOM  =    94.7928 eV,    6.9671 Ry                                         
                                                                                
   TITEL  = PAW_PBE Ti 08Apr2002                                                
   LULTRA =        F    use ultrasoft PP ?                                      
   IUNSCR =        1    unscreen: 0-lin 1-nonlin 2-no                           
   RPACOR =    2.200    partial core radius                                     
   POMASS =   47.880; ZVAL   =    4.000    mass and valenz                      
   RCORE  =    2.800    outmost cutoff radius                                   
   RWIGS  =    2.500; RWIGS  =    1.323    wigner-seitz radius (au A)           
   ENMAX  =  178.330; ENMIN  =  133.747 eV                                      
   RCLOC  =    2.215    cutoff for local pot                                    
   LCOR   =        T    correct aug charges                                     
   LPAW   =        T    paw PP                                                  
   EAUG   =  328.883                                                            
   DEXC   =    0.000                                                            
   RMAX   =    2.868    core radius for proj-oper                               
   RAUG   =    1.300    factor for augmentation sphere                          
   RDEP   =    2.885    radius for radial grids                                 
   RDEPT  =    2.320    core radius for aug-charge                              
                                                                                
   Atomic configuration                                                         
    9 entries                                                                   
     n  l   j            E        occ.                                          
     1  0  0.50     -4865.3608   2.0000                                         
     2  0  0.50      -533.1367   2.0000                                         
     2  1  1.50      -440.5031   6.0000                                         
     3  0  0.50       -59.3186   2.0000                                         
     3  1  1.50       -35.7012   6.0000                                         
     3  2  2.50        -1.9157   3.0000                                         
     4  0  0.50        -3.7291   1.0000                                         
     4  1  1.50        -4.0817   0.0000                                         
     4  3  2.50        -1.3606   0.0000                                         
   Description                                                                  
     l       E           TYP  RCUT    TYP  RCUT                                 
     2     -1.9156924     23  2.800                                             
     2     -0.4062961     23  2.800                                             
     0     -3.7290832     23  2.800                                             
     0     20.4087390     23  2.800                                             
     1     -5.4423304     23  2.800                                             
  local pseudopotential read in
  partial core-charges read in
  partial kinetic energy density read in
  atomic valenz-charges read in
  non local Contribution for L=           2  read in
    real space projection operators read in
  non local Contribution for L=           2  read in
    real space projection operators read in
  non local Contribution for L=           0  read in
    real space projection operators read in
  non local Contribution for L=           0  read in
    real space projection operators read in
  non local Contribution for L=           1  read in
    real space projection operators read in
    PAW grid and wavefunctions read in
 
   number of l-projection  operators is LMAX  =           5
   number of lm-projection operators is LMMAX =          15
 
 POTCAR:   PAW_PBE Zr 08Apr2002                   
   VRHFIN =Zr: 5s4d5p                                                           
   LEXCH  = PE                                                                  
   EATOM  =    77.8472 eV,    5.7216 Ry                                         
                                                                                
   TITEL  = PAW_PBE Zr 08Apr2002                                                
   LULTRA =        F    use ultrasoft PP ?                                      
   IUNSCR =        1    unscreen: 0-lin 1-nonlin 2-no                           
   RPACOR =    2.200    partial core radius                                     
   POMASS =   91.224; ZVAL   =    4.000    mass and valenz                      
   RCORE  =    3.000    outmost cutoff radius                                   
   RWIGS  =    3.070; RWIGS  =    1.625    wigner-seitz radius (au A)           
   ENMAX  =  154.632; ENMIN  =  115.974 eV                                      
   RCLOC  =    2.213    cutoff for local pot                                    
   LCOR   =        T    correct aug charges                                     
   LPAW   =        T    paw PP                                                  
   EAUG   =  243.217                                                            
   DEXC   =    -.082                                                            
   RMAX   =    3.708    core radius for proj-oper                               
   RAUG   =    1.300    factor for augmentation sphere                          
   RDEP   =    3.146    radius for radial grids                                 
   QCUT   =   -3.371; QGAM   =    6.742    optimization parameters              
                                                                                
   Description                                                                  
     l     E      TYP  RCUT    TYP  RCUT                                        
     2   .000     23  3.000                                                     
     2   .000     23  3.000                                                     
     0   .000     23  3.000                                                     
     0  2.000     23  3.000                                                     
     1  -.400     23  3.000                                                     
     3   .000      7   .000                                                     
  local pseudopotential read in
  partial core-charges read in
  atomic valenz-charges read in
  non local Contribution for L=           2  read in
    real space projection operators read in
  non local Contribution for L=           2  read in
    real space projection operators read in
  non local Contribution for L=           0  read in
    real space projection operators read in
  non local Contribution for L=           0  read in
    real space projection operators read in
  non local Contribution for L=           1  read in
    real space projection operators read in
    PAW grid and wavefunctions read in
 
   number of l-projection  operators is LMAX  =           5
   number of lm-projection operators is LMMAX =          15
 
 POTCAR:    PAW_PBE O 08Apr2002                   
   VRHFIN =O: s2p4                                                              
   LEXCH  = PE                                                                  
   EATOM  =   432.3788 eV,   31.7789 Ry                                         
                                                                                
   TITEL  = PAW_PBE O 08Apr2002                                                 
   LULTRA =        F    use ultrasoft PP ?                                      
   IUNSCR =        1    unscreen: 0-lin 1-nonlin 2-no                           
   RPACOR =    1.200    partial core radius                                     
   POMASS =   16.000; ZVAL   =    6.000    mass and valenz                      
   RCORE  =    1.520    outmost cutoff radius                                   
   RWIGS  =    1.550; RWIGS  =    0.820    wigner-seitz radius (au A)           
   ENMAX  =  400.000; ENMIN  =  300.000 eV                                      
   ICORE  =        2    local potential                                         
   LCOR   =        T    correct aug charges                                     
   LPAW   =        T    paw PP                                                  
   EAUG   =  605.392                                                            
   DEXC   =    0.000                                                            
   RMAX   =    1.553    core radius for proj-oper                               
   RAUG   =    1.300    factor for augmentation sphere                          
   RDEP   =    1.550    radius for radial grids                                 
   RDEPT  =    1.329    core radius for aug-charge                              
                                                                                
   Atomic configuration                                                         
    4 entries                                                                   
     n  l   j            E        occ.                                          
     1  0  0.50      -514.6923   2.0000                                         
     2  0  0.50       -23.9615   2.0000                                         
     2  1  0.50        -9.0305   4.0000                                         
     3  2  1.50        -9.5241   0.0000                                         
   Description                                                                  
     l       E           TYP  RCUT    TYP  RCUT                                 
     0    -23.9615318     23  1.200                                             
     0     -9.5240782     23  1.200                                             
     1     -9.0304911     23  1.520                                             
     1      8.1634956     23  1.520                                             
     2     -9.5240782      7  1.500                                             
  local pseudopotential read in
  partial core-charges read in
  partial kinetic energy density read in
  kinetic energy density of atom read in
  atomic valenz-charges read in
  non local Contribution for L=           0  read in
    real space projection operators read in
  non local Contribution for L=           0  read in
    real space projection operators read in
  non local Contribution for L=           1  read in
    real space projection operators read in
  non local Contribution for L=           1  read in
    real space projection operators read in
    PAW grid and wavefunctions read in
 
   number of l-projection  operators is LMAX  =           4
   number of lm-projection operators is LMMAX =           8
 
 Optimization of the real space projectors (new method)

 maximal supplied QI-value         = 19.84
 optimisation between [QCUT,QGAM] = [ 12.50, 25.00] = [ 43.76,175.03] Ry 
 Optimized for a Real-space Cutoff    1.06 Angstroem

   l    n(q)    QCUT    max X(q) W(low)/X(q) W(high)/X(q)  e(spline) 
   0      8    12.501   176.870    0.16E-03    0.12E-03    0.66E-07
   0      8    12.501   105.762    0.15E-03    0.12E-03    0.64E-07
   1      7    12.501    55.370    0.36E-03    0.38E-03    0.67E-07
   1      7    12.501    20.208    0.32E-03    0.35E-03    0.64E-07
 Optimization of the real space projectors (new method)

 maximal supplied QI-value         = 15.68
 optimisation between [QCUT,QGAM] = [ 12.55, 25.10] = [ 44.09,176.36] Ry 
 Optimized for a Real-space Cutoff    1.56 Angstroem

   l    n(q)    QCUT    max X(q) W(low)/X(q) W(high)/X(q)  e(spline) 
   0     12    12.548    10.201    0.21E-04    0.36E-05    0.83E-07
   0     12    12.548     8.174    0.31E-04    0.62E-05    0.15E-06
   1     11    12.548     3.488    0.79E-05    0.23E-04    0.21E-06
   1     11    12.548     4.917    0.56E-04    0.13E-03    0.11E-05
   2     11    12.548   153.744    0.25E-03    0.10E-03    0.15E-05
   2     11    12.548   126.342    0.25E-03    0.10E-03    0.15E-05
 Optimization of the real space projectors (new method)

 maximal supplied QI-value         = 12.85
 optimisation between [QCUT,QGAM] = [ 12.46, 25.06] = [ 43.51,175.83] Ry 
 Optimized for a Real-space Cutoff    1.56 Angstroem

   l    n(q)    QCUT    max X(q) W(low)/X(q) W(high)/X(q)  e(spline) 
   2     11    12.465    62.315    0.36E-03    0.20E-03    0.15E-05
   2     11    12.465    52.185    0.36E-03    0.20E-03    0.15E-05
   0     12    12.465   103.837    0.22E-04    0.37E-05    0.56E-06
   0     12    12.465    59.728    0.20E-04    0.34E-05    0.51E-06
   1     11    12.465    13.958    0.44E-03    0.81E-03    0.81E-05
   1     11    12.465     8.441    0.31E-03    0.56E-03    0.56E-05
 Optimization of the real space projectors (new method)

 maximal supplied QI-value         = 13.42
 optimisation between [QCUT,QGAM] = [ 12.48, 25.09] = [ 43.60,176.28] Ry 
 Optimized for a Real-space Cutoff    1.56 Angstroem

   l    n(q)    QCUT    max X(q) W(low)/X(q) W(high)/X(q)  e(spline) 
   2     11    12.478    49.363    0.45E-03    0.34E-03    0.89E-06
   2     11    12.478    47.669    0.44E-03    0.33E-03    0.87E-06
   0     12    12.478    26.374    0.17E-03    0.37E-04    0.21E-05
   0     12    12.478    11.549    0.13E-03    0.31E-04    0.17E-05
   1     11    12.478     9.492    0.91E-05    0.64E-04    0.34E-06
 Optimization of the real space projectors (new method)

 maximal supplied QI-value         = 12.47
 optimisation between [QCUT,QGAM] = [ 12.47, 25.07] = [ 43.56,175.99] Ry 
 Optimized for a Real-space Cutoff    1.70 Angstroem

   l    n(q)    QCUT    max X(q) W(low)/X(q) W(high)/X(q)  e(spline) 
   2     12    12.472     5.149    0.23E-04    0.12E-05    0.19E-06
   2     12    12.472    48.417    0.26E-03    0.15E-03    0.35E-05
   0     13    12.472    27.113    0.15E-04    0.46E-05    0.14E-06
   0     13    12.472    33.957    0.20E-04    0.33E-04    0.12E-05
   1     12    12.472    13.771    0.11E-04    0.23E-05    0.34E-06
 WARNING: PSMAXN for non-local potential too small
          PSMAXN should be >   12.5490833729506       NTYP=           5
 Optimization of the real space projectors (new method)

 maximal supplied QI-value         = 24.76
 optimisation between [QCUT,QGAM] = [ 12.38, 25.00] = [ 42.90,175.06] Ry 
 Optimized for a Real-space Cutoff    1.13 Angstroem

   l    n(q)    QCUT    max X(q) W(low)/X(q) W(high)/X(q)  e(spline) 
   0      8    12.378    20.381    0.16E-03    0.54E-05    0.27E-06
   0      8    12.378    15.268    0.17E-03    0.61E-05    0.29E-06
   1      8    12.378     5.964    0.38E-03    0.23E-03    0.28E-06
   1      8    12.378     5.382    0.33E-03    0.20E-03    0.25E-06
  PAW_PBE Al 04Jan2001                  :
 energy of atom  1       EATOM=  -53.5387
 kinetic energy error for atom=    0.0002 (will be added to EATOM!!)
  PAW_PBE Nb_sv 25May2007               :
 energy of atom  2       EATOM=-1555.1913
 kinetic energy error for atom=    0.0037 (will be added to EATOM!!)
  PAW_PBE Ta 17Jan2003                  :
 energy of atom  3       EATOM= -130.6506
 kinetic energy error for atom=    0.0004 (will be added to EATOM!!)
  PAW_PBE Ti 08Apr2002                  :
 energy of atom  4       EATOM=  -94.7928
 kinetic energy error for atom=    0.0001 (will be added to EATOM!!)
 PAW_PBE Zr 08Apr2002                   :
 energy of atom  5       EATOM=  -77.8472
 kinetic energy error for atom=    0.0001 (will be added to EATOM!!)
  PAW_PBE O 08Apr2002                   :
 energy of atom  6       EATOM= -432.3788
 kinetic energy error for atom=    0.0168 (will be added to EATOM!!)
 
 
 POSCAR: Al Nb Ta Ti Zr                          
  positions in direct lattice
  velocities in cartesian coordinates
 exchange correlation table for  LEXCH =        8
   RHO(1)=    0.500       N(1)  =     2000
   RHO(2)=  100.500       N(2)  =     4000
 


--------------------------------------------------------------------------------------------------------


 ion  position               nearest neighbor table
   1  0.623  0.867  0.376-  34 2.83  25 2.88  24 2.88   9 2.88  13 2.90   4 2.91  61 2.93  15 3.16
                            41 3.35  17 3.40
   2  0.626  0.400  0.545-  31 2.79  33 2.84   7 2.84  26 2.86   3 2.87  23 2.90  14 2.91  62 2.97
                            10 3.00  17 3.09  42 3.29
   3  0.634  0.622  0.615-  75 1.87  78 1.94  23 2.63  14 2.65   8 2.70  32 2.71  33 2.79   2 2.87
                            26 2.97  27 3.01  12 3.09
   4  0.618  0.084  0.450-  31 2.80  24 2.86  34 2.87  13 2.88   1 2.91  25 2.92   7 2.92  62 2.99
                            10 3.04  28 3.16  46 3.24
   5  0.977  0.638  0.550-  30 2.80  27 2.81  56 2.93  42 2.94  63 2.97  52 3.04  47 3.06  23 3.15
                            59 3.16  57 3.27  54 3.31  58 3.47
   6  0.980  0.121  0.378-  29 2.80  28 2.80  53 2.91  41 2.96  51 3.05  55 3.05  60 3.08  57 3.37

   7  0.729  0.343  0.458-  28 2.77  29 2.83   2 2.84  31 2.85  17 2.89  11 2.90   4 2.92  63 3.07
                            62 3.08  42 3.13
   8  0.720  0.869  0.633-  78 1.95  77 2.05  71 2.06  27 2.69   3 2.70  18 2.75  32 2.84  12 2.88
                            30 2.95  64 3.09
   9  0.517  0.608  0.367-  35 2.84  15 2.85  17 2.87   1 2.88  11 2.89  61 2.95  43 3.10
  10  0.510  0.135  0.544-  16 2.81  18 2.86  36 2.87  12 2.94   2 3.00  46 3.00  31 3.01  62 3.03
                             4 3.04  44 3.10
  11  0.618  0.343  0.369-  24 2.75  34 2.83  31 2.87   9 2.89   7 2.90  61 2.96  43 3.27
  12  0.616  0.868  0.543-  23 2.81  32 2.84  13 2.84  33 2.85   8 2.88  25 2.89  62 2.94  10 2.94
                             3 3.09  44 3.33
  13  0.742  0.843  0.462-  12 2.84  23 2.86  17 2.87   4 2.88   1 2.90  28 2.94  63 2.98  30 3.05
                            41 3.05  57 3.27
  14  0.733  0.393  0.635-  76 1.96  74 2.00   3 2.65   2 2.91  27 3.02  42 3.02  64 3.07  18 3.09
                            58 3.12
  15  0.394  0.847  0.369-  22 2.68  19 2.76  25 2.83  34 2.84   9 2.85  39 2.98   1 3.16  46 3.43

  16  0.386  0.368  0.542-  21 2.63  26 2.78  10 2.81  37 2.82  20 2.83  40 2.89  33 2.89  31 2.94

  17  0.619  0.602  0.458-  25 2.81  31 2.85   9 2.87  13 2.87   7 2.89  33 2.91  23 2.91  61 2.95
                            35 3.03   2 3.09   1 3.40  63 3.44
  18  0.617  0.116  0.632-  72 1.98  74 2.03  71 2.11   8 2.75  10 2.86  62 2.96  36 2.97  32 2.98
                            26 3.05  14 3.09  64 3.29
  19  0.279  0.834  0.451-  15 2.76  35 2.94  44 2.95  46 2.96  39 2.97  25 2.99  60 3.07  51 3.08
                            47 3.12  56 3.26  21 3.29
  20  0.276  0.348  0.629-  69 1.99  70 2.04  67 2.14  16 2.83  36 2.95  48 3.04  26 3.07  40 3.07
                            45 3.08  52 3.12  59 3.15
  21  0.275  0.591  0.535-  16 2.63  45 2.84  35 2.89  37 2.93  47 2.93  52 2.98  33 3.04  44 3.07
                            56 3.09  19 3.29  59 3.33
  22  0.283  0.077  0.361-  15 2.68  46 2.97  43 2.97  34 2.99  51 3.02  55 3.10  60 3.10
  23  0.749  0.646  0.539-   3 2.63  30 2.77  12 2.81  63 2.84  27 2.84  13 2.86   2 2.90  17 2.91
                            42 3.04   5 3.15
  24  0.740  0.115  0.366-  29 2.73  11 2.75  28 2.85   4 2.86   1 2.88  41 3.00
  25  0.496  0.836  0.458-  35 2.78  17 2.81  15 2.83   1 2.88  12 2.89   4 2.92  44 2.96  19 2.99
                            46 2.99  33 3.06
  26  0.498  0.384  0.626-  70 1.97  74 2.05  75 2.12  16 2.78   2 2.86   3 2.97  36 3.04  18 3.05
                            20 3.07  45 3.25
  27  0.849  0.659  0.629-  76 2.01  68 2.10  77 2.15   8 2.69  58 2.77   5 2.81  23 2.84  30 2.98
                             3 3.01  14 3.02  54 3.07  42 3.51
  28  0.847  0.110  0.455-   7 2.77   6 2.80  24 2.85  62 2.89  57 2.90  13 2.94  53 2.98  50 3.07
                            29 3.15   4 3.16  41 3.36
  29  0.852  0.349  0.376-  24 2.73   6 2.80   7 2.83  53 2.94  61 2.98  49 3.07  28 3.15  63 3.25

  30  0.863  0.880  0.554-  77 2.17  23 2.77   5 2.80  50 2.89  57 2.92   8 2.95  27 2.98  62 3.01
                            13 3.05  54 3.22  64 3.29
  31  0.522  0.339  0.461-   2 2.79   4 2.80  17 2.85   7 2.85  35 2.86  11 2.87  16 2.94  46 2.95
                            10 3.01  43 3.11
  32  0.515  0.842  0.632-  78 1.99  72 2.02  65 2.03  75 2.28   3 2.71   8 2.84  12 2.84  45 2.89
                            36 2.90  18 2.98  44 3.10
  33  0.494  0.628  0.542-  75 2.31   3 2.79   2 2.84  35 2.85  12 2.85  44 2.89  16 2.89  17 2.91
                            21 3.04  25 3.06  45 3.09
  34  0.499  0.102  0.365-  11 2.83   1 2.83  15 2.84   4 2.87  43 2.91  46 2.98  22 2.99
  35  0.400  0.580  0.451-  25 2.78   9 2.84  33 2.85  31 2.86  37 2.88  21 2.89  39 2.93  19 2.94
                            17 3.03  43 3.08
  36  0.402  0.098  0.632-  72 1.97  70 2.01  67 2.07  65 2.13  10 2.87  32 2.90  20 2.95  18 2.97
                            38 3.00  26 3.04  40 3.16  44 3.22
  37  0.255  0.366  0.464-  16 2.82  35 2.88  21 2.93  47 3.02  60 3.04  43 3.05  55 3.08  46 3.08
                            52 3.12  40 3.16  39 3.39
  38  0.224  0.916  0.633-  73 1.87  65 2.03  67 2.07  56 2.84  54 2.85  48 2.99  36 3.00  45 3.09
                            59 3.22  44 3.22  40 3.22
  39  0.252  0.614  0.376-  35 2.93  19 2.97  15 2.98  47 3.07  43 3.07  51 3.07  55 3.08  37 3.39
                            49 3.53
  40  0.252  0.136  0.546-  67 2.37  16 2.89  44 3.01  60 3.04  20 3.07  52 3.08  46 3.11  36 3.16
                            37 3.16  48 3.22  38 3.22  56 3.23  50 3.57
  41  0.865  0.859  0.370-   6 2.96  24 3.00  61 3.05  13 3.05  57 3.06  49 3.12   1 3.35  28 3.36
                            51 3.49  63 3.53
  42  0.864  0.377  0.548-   5 2.94  62 3.01  14 3.02  23 3.04  50 3.11   7 3.13  58 3.13  63 3.23
                            53 3.26   2 3.29  64 3.43  52 3.43  27 3.51
  43  0.381  0.352  0.373-  34 2.91  22 2.97  37 3.05  39 3.07  35 3.08   9 3.10  31 3.11  55 3.26
                            11 3.27  46 3.29
  44  0.375  0.876  0.545-  65 2.34  33 2.89  19 2.95  25 2.96  40 3.01  21 3.07  32 3.10  10 3.10
                            45 3.16  36 3.22  38 3.22  46 3.30  56 3.32  12 3.33
  45  0.352  0.651  0.628-  69 2.07  75 2.09  65 2.21  21 2.84  32 2.89  59 3.05  20 3.08  38 3.09
                            33 3.09  44 3.16  26 3.25
  46  0.384  0.104  0.456-  31 2.95  19 2.96  22 2.97  34 2.98  25 2.99  10 3.00  37 3.08  40 3.11
                             4 3.24  60 3.27  43 3.29  44 3.30  15 3.43
  47  0.117  0.611  0.465-  21 2.93  37 3.02   5 3.06  39 3.07  19 3.12  56 3.13  53 3.14  49 3.15
                            57 3.17  52 3.21  63 3.42  51 3.52  55 3.80
  48  0.095  0.167  0.632-  66 2.10  67 2.20  38 2.99  50 2.99  20 3.04  52 3.09  54 3.11  58 3.15
                            40 3.22  64 3.32
  49  0.996  0.593  0.368-  63 3.05  29 3.07  41 3.12  47 3.15  51 3.16  55 3.23  53 3.44  39 3.53
                            61 3.65  57 3.82
  50  0.994  0.112  0.538-  30 2.89  48 2.99  57 3.04  28 3.07  42 3.11  52 3.14  53 3.15  60 3.22
                            56 3.24  64 3.32  40 3.57  62 3.63  54 3.70
  51  0.119  0.872  0.375-  60 3.00  22 3.02   6 3.05  39 3.07  19 3.08  57 3.16  49 3.16  41 3.49
                            47 3.52
  52  0.113  0.389  0.551-  21 2.98   5 3.04  59 3.06  40 3.08  48 3.09  37 3.12  20 3.12  50 3.14
                            53 3.19  47 3.21  42 3.43  58 3.50
  53  1.000  0.331  0.453-   6 2.91  29 2.94  28 2.98  60 3.06  63 3.08  55 3.09  47 3.14  50 3.15
                            52 3.19  42 3.26  49 3.44
  54  0.021  0.861  0.639-  77 2.12  73 2.19  68 2.19  38 2.85  59 2.90  56 3.06  27 3.07  48 3.11
                            30 3.22   5 3.31  64 3.40  50 3.70
  55  0.145  0.332  0.368-   6 3.05  37 3.08  39 3.08  53 3.09  22 3.10  49 3.23  60 3.24  43 3.26
                            47 3.80
  56  0.135  0.843  0.544-  38 2.84   5 2.93  54 3.06  57 3.08  21 3.09  47 3.13  40 3.23  50 3.24
                            19 3.26  44 3.32  59 3.33  60 3.52
  57  0.979  0.876  0.465-  28 2.90  30 2.92  50 3.04  41 3.06  56 3.08  63 3.11  60 3.13  51 3.16
                            47 3.17   5 3.27  13 3.27   6 3.37  49 3.82
  58  0.957  0.423  0.651-  66 2.06  76 2.12  68 2.20  27 2.77  59 3.04  14 3.12  42 3.13  48 3.15
                            64 3.18   5 3.47  52 3.50
  59  0.133  0.605  0.632-  69 2.14  73 2.19  68 2.20  54 2.90  58 3.04  45 3.05  52 3.06  20 3.15
                             5 3.16  38 3.22  21 3.33  56 3.33
  60  0.147  0.092  0.451-  51 3.00  40 3.04  37 3.04  53 3.06  19 3.07   6 3.08  22 3.10  57 3.13
                            50 3.22  55 3.24  46 3.27  56 3.52
  61  0.731  0.606  0.367-   1 2.93  17 2.95   9 2.95  11 2.96  29 2.98  41 3.05  63 3.17  49 3.65

  62  0.730  0.128  0.541-  28 2.89  12 2.94  18 2.96   2 2.97   4 2.99  30 3.01  42 3.01  10 3.03
                             7 3.08  64 3.16  50 3.63
  63  0.869  0.592  0.458-  23 2.84   5 2.97  13 2.98  49 3.05   7 3.07  53 3.08  57 3.11  61 3.17
                            42 3.23  29 3.25  47 3.42  17 3.44  41 3.53
  64  0.856  0.126  0.637-  71 2.12  66 2.15  77 2.34  14 3.07   8 3.09  62 3.16  58 3.18  30 3.29
                            18 3.29  48 3.32  50 3.32  54 3.40  42 3.43
  65  0.370  0.880  0.630-  38 2.03  32 2.03  36 2.13  45 2.21  44 2.34
  66  0.975  0.221  0.675-  58 2.06  48 2.10  64 2.15
  67  0.253  0.128  0.632-  38 2.07  36 2.07  20 2.14  48 2.20  40 2.37
  68  0.987  0.646  0.661-  27 2.10  54 2.19  58 2.20  59 2.20
  69  0.260  0.522  0.667-  20 1.99  45 2.07  59 2.14
  70  0.399  0.286  0.664-  26 1.97  36 2.01  20 2.04
  71  0.735  0.046  0.675-   8 2.06  18 2.11  64 2.12
  72  0.512  0.024  0.669-  36 1.97  18 1.98  32 2.02
  73  0.156  0.796  0.675-  38 1.87  59 2.19  54 2.19
  74  0.614  0.307  0.664-  14 2.00  18 2.03  26 2.05
  75  0.500  0.605  0.625-   3 1.87  45 2.09  26 2.12  32 2.28  33 2.31
  76  0.822  0.503  0.675-  14 1.96  27 2.01  58 2.12
  77  0.868  0.882  0.632-   8 2.05  54 2.12  27 2.15  30 2.17  64 2.34
  78  0.625  0.755  0.667-   3 1.94   8 1.95  32 1.99
 
  LATTYP: Found a simple orthorhombic cell.
 ALAT       =     9.5644817352
 B/A-ratio  =     1.4398428730
 C/A-ratio  =     2.8922184390
  
  Lattice vectors:
  
 A1 = (   0.0000000000,  -9.5644817352,   0.0000000000)
 A2 = ( -13.7713508606,   0.0000000000,   0.0000000000)
 A3 = (   0.0000000000,   0.0000000000, -27.6625704340)


Analysis of symmetry for initial positions (statically):
=====================================================================
 Subroutine PRICEL returns:
 Original cell was already a primitive cell.
 

 Routine SETGRP: Setting up the symmetry group for a 
 simple orthorhombic supercell.


 Subroutine GETGRP returns: Found  1 space group operations
 (whereof  1 operations were pure point group operations)
 out of a pool of  8 trial point group operations.


The static configuration has the point symmetry C_1 .


Analysis of symmetry for dynamics (positions and initial velocities):
=====================================================================
 Subroutine PRICEL returns:
 Original cell was already a primitive cell.
 

 Routine SETGRP: Setting up the symmetry group for a 
 simple orthorhombic supercell.


 Subroutine GETGRP returns: Found  1 space group operations
 (whereof  1 operations were pure point group operations)
 out of a pool of  8 trial point group operations.


The dynamic configuration has the point symmetry C_1 .


Analysis of constrained symmetry for selective dynamics:
=====================================================================
 Subroutine PRICEL returns:
 Original cell was already a primitive cell.
 

 Routine SETGRP: Setting up the symmetry group for a 
 simple orthorhombic supercell.


 Subroutine GETGRP returns: Found  1 space group operations
 (whereof  1 operations were pure point group operations)
 out of a pool of  8 trial point group operations.


The constrained configuration has the point symmetry C_1 .


 Subroutine INISYM returns: Found  1 space group operations
 (whereof  1 operations are pure point group operations),
 and found     1 'primitive' translations

 
 
 KPOINTS: k-points                                

Automatic generation of k-mesh.
Space group operators:
 irot       det(A)        alpha          n_x          n_y          n_z        tau_x        tau_y        tau_z
    1     1.000000     0.000000     1.000000     0.000000     0.000000     0.000000     0.000000     0.000000
 
 Subroutine IBZKPT returns following result:
 ===========================================
 
 Found      5 irreducible k-points:
 
 Following reciprocal coordinates:
            Coordinates               Weight
  0.000000  0.000000  0.000000      1.000000
  0.333333  0.000000  0.000000      2.000000
  0.000000  0.333333  0.000000      2.000000
  0.333333  0.333333  0.000000      2.000000
 -0.333333  0.333333  0.000000      2.000000
 
 Following cartesian coordinates:
            Coordinates               Weight
  0.000000  0.000000  0.000000      1.000000
  0.024205  0.000000  0.000000      2.000000
  0.000000  0.034851  0.000000      2.000000
  0.024205  0.034851  0.000000      2.000000
 -0.024205  0.034851  0.000000      2.000000
 


--------------------------------------------------------------------------------------------------------




 Dimension of arrays:
   k-points           NKPTS =      5   k-points in BZ     NKDIM =      5   number of bands    NBANDS=    256
   number of dos      NEDOS =    301   number of ions     NIONS =     78
   non local maximal  LDIM  =      6   non local SUM 2l+1 LMDIM =     18
   total plane-waves  NPLWV = 846720
   max r-space proj   IRMAX =   4874   max aug-charges    IRDMAX=  25433
   dimension x,y,z NGX =    84 NGY =   60 NGZ =  168
   dimension x,y,z NGXF=   168 NGYF=  120 NGZF=  336
   support grid    NGXF=   168 NGYF=  120 NGZF=  336
   ions per type =               6  10   4  18  26  14
 NGX,Y,Z   is equivalent  to a cutoff of  10.14, 10.43, 10.10 a.u.
 NGXF,Y,Z  is equivalent  to a cutoff of  20.28, 20.86, 20.19 a.u.


 I would recommend the setting:
   dimension x,y,z NGX =    83 NGY =   57 NGZ =  166
 SYSTEM =  (110) surface                           
 POSCAR =  Al Nb Ta Ti Zr                          

 Startparameter for this run:
   NWRITE =      2    write-flag & timer
   PREC   = normal    normal or accurate (medium, high low for compatibility)
   ISTART =      0    job   : 0-new  1-cont  2-samecut
   ICHARG =      2    charge: 1-file 2-atom 10-const
   ISPIN  =      1    spin polarized calculation?
   LNONCOLLINEAR =      F non collinear calculations
   LSORBIT =      F    spin-orbit coupling
   INIWAV =      1    electr: 0-lowe 1-rand  2-diag
   LASPH  =      F    aspherical Exc in radial PAW
   METAGGA=      F    non-selfconsistent MetaGGA calc.

 Electronic Relaxation 1
   ENCUT  =  600.0 eV  44.10 Ry    6.64 a.u.  27.50 19.10 55.25*2*pi/ulx,y,z
   ENINI  =  600.0     initial cutoff
   ENAUG  =  605.4 eV  augmentation charge cutoff
   NELM   =     60;   NELMIN=  2; NELMDL= -5     # of ELM steps 
   EDIFF  = 0.1E-05   stopping-criterion for ELM
   LREAL  =      T    real-space projection
   NLSPLINE    = F    spline interpolate recip. space projectors
   LCOMPAT=      F    compatible to vasp.4.4
   GGA_COMPAT  = T    GGA compatible to vasp.4.4-vasp.4.6
   LMAXPAW     = -100 max onsite density
   LMAXMIX     =    2 max onsite mixed and CHGCAR
   VOSKOWN=      0    Vosko Wilk Nusair interpolation
   ROPT   =   -0.00050  -0.00050  -0.00050  -0.00050
   ROPT   =   -0.00050  -0.00050
 Ionic relaxation
   EDIFFG = -.1E-01   stopping-criterion for IOM
   NSW    =      0    number of steps for IOM
   NBLOCK =      1;   KBLOCK =      1    inner block; outer block 
   IBRION =     -1    ionic relax: 0-MD 1-quasi-New 2-CG
   NFREE  =      0    steps in history (QN), initial steepest desc. (CG)
   ISIF   =      2    stress and relaxation
   IWAVPR =     10    prediction:  0-non 1-charg 2-wave 3-comb
   ISYM   =      2    0-nonsym 1-usesym 2-fastsym
   LCORR  =      T    Harris-Foulkes like correction to forces

   POTIM  = 0.1000    time-step for ionic-motion
   TEIN   =    0.0    initial temperature
   TEBEG  =    0.0;   TEEND  =   0.0 temperature during run
   SMASS  =  -3.00    Nose mass-parameter (am)
   estimated Nose-frequenzy (Omega)   =  0.10E-29 period in steps =****** mass=  -0.433E-26a.u.
   SCALEE = 1.0000    scale energy and forces
   NPACO  =    256;   APACO  = 16.0  distance and # of slots for P.C.
   PSTRESS=    0.0 pullay stress

  Mass of Ions in am
   POMASS =  26.98 92.91180.95 47.88 91.22 16.00
  Ionic Valenz
   ZVAL   =   3.00 13.00  5.00  4.00  4.00  6.00
  Atomic Wigner-Seitz radii
   RWIGS  =  -1.00 -1.00 -1.00 -1.00 -1.00 -1.00
  virtual crystal weights 
   VCA    =   1.00  1.00  1.00  1.00  1.00  1.00
   NELECT =     428.0000    total number of electrons
   NUPDOWN=      -1.0000    fix difference up-down

 DOS related values:
   EMIN   =  10.00;   EMAX   =-10.00  energy-range for DOS
   EFERMI =   0.00
   ISMEAR =     2;   SIGMA  =   0.10  broadening in eV -4-tet -1-fermi 0-gaus

 Electronic relaxation 2 (details)
   IALGO  =     68    algorithm
   LDIAG  =      T    sub-space diagonalisation (order eigenvalues)
   LSUBROT=      F    optimize rotation matrix (better conditioning)
   TURBO    =      0    0=normal 1=particle mesh
   IRESTART =      0    0=no restart 2=restart with 2 vectors
   NREBOOT  =      0    no. of reboots
   NMIN     =      0    reboot dimension
   EREF     =   0.00    reference energy to select bands
   IMIX   =      4    mixing-type and parameters
     AMIX     =   0.40;   BMIX     =  1.00
     AMIX_MAG =   1.60;   BMIX_MAG =  1.00
     AMIN     =   0.10
     WC   =   100.;   INIMIX=   1;  MIXPRE=   1;  MAXMIX= -45

 Intra band minimization:
   WEIMIN = 0.0000     energy-eigenvalue tresh-hold
   EBREAK =  0.98E-09  absolut break condition
   DEPER  =   0.30     relativ break condition  

   TIME   =   0.40     timestep for ELM

  volume/ion in A,a.u.               =      46.71       315.23
  Fermi-wavevector in a.u.,A,eV,Ry     =   0.801763  1.515112  8.746146  0.642824
  Thomas-Fermi vector in A             =   1.909312
 
 Write flags
   LWAVE  =      F    write WAVECAR
   LCHARG =      F    write CHGCAR
   LVTOT  =      F    write LOCPOT, total local potential
   LVHAR  =      T    write LOCPOT, Hartree potential only
   LELF   =      F    write electronic localiz. function (ELF)
   LORBIT =      0    0 simple, 1 ext, 2 COOP (PROOUT)


 Dipole corrections
   LMONO  =      F    monopole corrections only (constant potential shift)
   LDIPOL =      F    correct potential (dipole corrections)
   IDIPOL =      0    1-x, 2-y, 3-z, 4-all directions 
   EPSILON=  1.0000000 bulk dielectric constant

 Exchange correlation treatment:
   GGA     =    --    GGA type
   LEXCH   =     8    internal setting for exchange type
   VOSKOWN=      0    Vosko Wilk Nusair interpolation
   LHFCALC =     F    Hartree Fock is set to
   LHFONE  =     F    Hartree Fock one center treatment
   AEXX    =    0.0000 exact exchange contribution

 Linear response parameters
   LEPSILON=     F    determine dielectric tensor
   LRPA    =     F    only Hartree local field effects (RPA)
   LNABLA  =     F    use nabla operator in PAW spheres
   LVEL    =     F    velocity operator in full k-point grid
   LINTERFAST=   F  fast interpolation
   KINTER  =     0    interpolate to denser k-point grid
   CSHIFT  =0.1000    complex shift for real part using Kramers Kronig
   OMEGAMAX=  -1.0    maximum frequency
   DEG_THRESHOLD= 0.2000000E-02 threshold for treating states as degnerate
   RTIME   =    0.100 relaxation time in fs

 Orbital magnetization related:
   ORBITALMAG=     F  switch on orbital magnetization
   LCHIMAG   =     F  perturbation theory with respect to B field
   DQ        =  0.001000  dq finite difference perturbation B field



--------------------------------------------------------------------------------------------------------


 Static calculation
 charge density and potential will be updated during run
 non-spin polarized calculation
 RMM-DIIS sequential band-by-band and
  variant of blocked Davidson during initial phase
 perform sub-space diagonalisation
    before iterative eigenvector-optimisation
 modified Broyden-mixing scheme, WC =      100.0
 initial mixing is a Kerker type mixing with AMIX =  0.4000 and BMIX =      1.0000
 Hartree-type preconditioning will be used
 using additional bands           42
 real space projection scheme for non local part
 use partial core corrections
 calculate Harris-corrections to forces 
   (improved forces if not selfconsistent)
 use gradient corrections 
 use of overlap-Matrix (Vanderbilt PP)
 Methfessel and Paxton  Order N= 2 SIGMA  =   0.10


--------------------------------------------------------------------------------------------------------


  energy-cutoff  :      600.00
  volume of cell :     3643.60
      direct lattice vectors                 reciprocal lattice vectors
    13.771350861  0.000000000  0.000000000     0.072614518  0.000000000  0.000000000
     0.000000000  9.564481735  0.000000000     0.000000000  0.104553496  0.000000000
     0.000000000  0.000000000 27.662570434     0.000000000  0.000000000  0.036149931

  length of vectors
    13.771350861  9.564481735 27.662570434     0.072614518  0.104553496  0.036149931


 
 k-points in units of 2pi/SCALE and weight: k-points                                
   0.00000000  0.00000000  0.00000000       0.111
   0.02420484  0.00000000  0.00000000       0.222
   0.00000000  0.03485117  0.00000000       0.222
   0.02420484  0.03485117  0.00000000       0.222
  -0.02420484  0.03485117  0.00000000       0.222
 
 k-points in reciprocal lattice and weights: k-points                                
   0.00000000  0.00000000  0.00000000       0.111
   0.33333333  0.00000000  0.00000000       0.222
   0.00000000  0.33333333  0.00000000       0.222
   0.33333333  0.33333333  0.00000000       0.222
  -0.33333333  0.33333333  0.00000000       0.222
 
 position of ions in fractional coordinates (direct lattice) 
   0.62276447  0.86746430  0.37590333
   0.62579567  0.40025083  0.54489787
   0.63376484  0.62203399  0.61458903
   0.61839700  0.08363760  0.44965952
   0.97656274  0.63821970  0.55001227
   0.97963780  0.12056648  0.37767599
   0.72857308  0.34338307  0.45816820
   0.71986640  0.86946842  0.63307383
   0.51739597  0.60805875  0.36719826
   0.50996415  0.13523086  0.54379443
   0.61811078  0.34297293  0.36889183
   0.61609507  0.86815895  0.54285233
   0.74231148  0.84345710  0.46199300
   0.73282028  0.39256859  0.63540169
   0.39405298  0.84738672  0.36896032
   0.38560047  0.36812378  0.54238142
   0.61928761  0.60162497  0.45752798
   0.61737746  0.11593735  0.63212113
   0.27944195  0.83362269  0.45088327
   0.27614912  0.34811321  0.62862142
   0.27477547  0.59117895  0.53499633
   0.28324246  0.07725573  0.36149931
   0.74873514  0.64576453  0.53926460
   0.74002355  0.11549973  0.36646499
   0.49591756  0.83582580  0.45790018
   0.49771447  0.38364152  0.62590911
   0.84918224  0.65895640  0.62893628
   0.84724605  0.11017048  0.45460239
   0.85243583  0.34907103  0.37639265
   0.86256565  0.88049587  0.55353528
   0.52175105  0.33942658  0.46105252
   0.51481560  0.84169108  0.63190140
   0.49368018  0.62752141  0.54164491
   0.49943882  0.10200214  0.36464270
   0.40016663  0.58028412  0.45130253
   0.40181493  0.09787057  0.63172636
   0.25505811  0.36595738  0.46399110
   0.22421601  0.91566134  0.63331934
   0.25182599  0.61397660  0.37627308
   0.25154455  0.13588786  0.54619207
   0.86539888  0.85904646  0.37036829
   0.86412761  0.37665638  0.54828872
   0.38059813  0.35186696  0.37331264
   0.37466887  0.87604278  0.54516793
   0.35204591  0.65099352  0.62807729
   0.38408008  0.10357511  0.45579618
   0.11657381  0.61110574  0.46457054
   0.09527646  0.16667179  0.63199112
   0.99629861  0.59295863  0.36811234
   0.99354668  0.11220560  0.53818020
   0.11869311  0.87196302  0.37467704
   0.11325203  0.38881504  0.55140369
   0.99977952  0.33051389  0.45306987
   0.02108093  0.86075220  0.63900731
   0.14482272  0.33176249  0.36788561
   0.13496376  0.84264023  0.54423375
   0.97888047  0.87608504  0.46520830
   0.95651724  0.42270250  0.65053778
   0.13339974  0.60526282  0.63243476
   0.14721048  0.09173214  0.45072276
   0.73135245  0.60578495  0.36679988
   0.73014716  0.12829381  0.54097106
   0.86923259  0.59196168  0.45825814
   0.85614352  0.12572622  0.63664102
   0.36966783  0.88048431  0.62957551
   0.97492759  0.22120719  0.67473707
   0.25305339  0.12755107  0.63166856
   0.98713614  0.64616765  0.66102349
   0.25999249  0.52233070  0.66730044
   0.39863437  0.28568113  0.66435980
   0.73491798  0.04631850  0.67472264
   0.51222323  0.02351099  0.66916991
   0.15570398  0.79584741  0.67471975
   0.61350636  0.30677011  0.66405850
   0.50030066  0.60482270  0.62481024
   0.82164509  0.50299774  0.67545633
   0.86843010  0.88171870  0.63197010
   0.62496564  0.75486187  0.66725304
 
 position of ions in cartesian coordinates  (Angst):
   8.57630799  8.29684649 10.39845223
   8.61805179  3.82819174 15.07327575
   8.72779803  5.94943269 17.00111239
   8.51616202  0.79995025 12.43873821
  13.44858814  6.10424064 15.21475322
  13.49093588  1.15315590 10.44748880
  10.03343557  3.28428114 12.67411000
   9.91353273  8.31601479 17.51244947
   7.12524148  5.81576681 10.15764776
   7.02289521  1.29341310 15.04275175
   8.51222037  3.28035836 10.20449636
   8.48446143  8.30349041 15.01669090
  10.22263181  8.06723005 12.77991378
  10.09192524  3.75471511 17.57684387
   5.42664188  8.10481479 10.20639088
   5.31023933  3.52091315 15.00366419
   8.52842696  5.75423100 12.65640004
   8.50212155  1.10888063 17.48609535
   3.84829318  7.97316903 12.47259035
   3.80294641  3.32952242 17.38928441
   3.78402939  5.65432028 14.79937379
   3.90063135  0.73891098 10.00000000
  10.31109425  6.17640305 14.91744498
  10.19112400  1.10469510 10.13736353
   6.82945470  7.99424061 12.66669595
   6.85420064  3.66933235 17.31425490
  11.69438655  6.30257644 17.39799422
  11.66772263  1.05372358 12.57547056
  11.73919286  3.33868345 10.41198829
  11.87869423  8.42148667 15.31220857
   7.18521672  3.24643930 12.75389771
   7.08970622  8.05033894 17.48001706
   6.79864294  6.00191702 14.98329035
   6.87794726  0.97559764 10.08695433
   5.51083508  5.55011685 12.48418803
   5.53353443  0.93608132 17.47517501
   3.51249472  3.50019267 12.83518635
   3.08775734  8.75782616 17.51924075
   3.46798404  5.87236796 10.40868071
   3.46410827  1.29969691 15.10907663
  11.91771166  8.21633417 10.24533883
  11.90020445  3.60252305 15.16707522
   5.24135036  3.36542512 10.32678719
   5.15969653  8.37889521 15.08074629
   4.84814773  6.22641566 17.37423236
   5.28930157  0.99064225 12.60849381
   1.60537885  5.84490969 12.85121538
   1.31208555  1.59412932 17.48249883
  13.72037774  5.67134198 10.18293350
  13.68247996  1.07318843 14.88744767
   1.63456451  8.33987442 10.36453009
   1.55963342  3.71881433 15.25324351
  13.76831459  3.16119411 12.53307716
   0.29031285  8.23264867 17.67658472
   1.99440444  3.17313630 10.17666150
   1.85863327  8.05941713 15.05490432
  13.48050634  8.37929939 12.86885734
  13.17253454  4.04293033 17.99554713
   1.83709457  5.78902521 17.49477097
   2.02728715  0.87737042 12.46815015
  10.07171117  5.79401911 10.14662739
  10.05511273  1.22706381 14.96465005
  11.97050705  5.66180669 12.67659812
  11.79025274  1.20250610 17.61112717
   5.09082542  8.42137608 17.41567688
  13.42606994  2.11573209 18.66496166
   3.48488697  1.21995991 17.47357596
  13.59419807  6.18025873 18.28560872
   3.58044782  4.99582242 18.45924547
   5.48973372  2.73239196 18.37789986
  10.12081336  0.44301242 18.66456251
   7.05400585  0.22487041 18.51095977
   2.14425415  7.61186802 18.66448247
   8.44881137  2.93409715 18.36956495
   6.88981588  5.78481568 17.28385722
  11.31516280  4.81091268 18.68485839
  11.95945555  8.43318245 17.48191747
   8.60662105  7.21986254 18.45793410
 


--------------------------------------------------------------------------------------------------------


 k-point  1 :   0.0000 0.0000 0.0000  plane waves:  121663
 k-point  2 :   0.3333 0.0000 0.0000  plane waves:  121577
 k-point  3 :   0.0000 0.3333 0.0000  plane waves:  121622
 k-point  4 :   0.3333 0.3333 0.0000  plane waves:  121647
 k-point  5 :  -0.3333 0.3333 0.0000  plane waves:  121647

 maximum and minimum number of plane-waves per node :      5107     5041

 maximum number of plane-waves:    121663
 maximum index in each direction: 
   IXMAX=   27   IYMAX=   19   IZMAX=   55
   IXMIN=  -27   IYMIN=  -19   IZMIN=  -55

 WARNING: aliasing errors must be expected set NGX to 110 to avoid them
 WARNING: aliasing errors must be expected set NGY to  78 to avoid them
 WARNING: aliasing errors must be expected set NGZ to 222 to avoid them
 aliasing errors are usually negligible using standard VASP settings
 and one can safely disregard these warnings

 real space projection operators:
  total allocation   :      30512.69 KBytes
  max/ min on nodes  :       1480.82       1061.84


 parallel 3D FFT for wavefunctions:
    minimum data exchange during FFTs selected (reduces bandwidth)
 parallel 3D FFT for charge:
    minimum data exchange during FFTs selected (reduces bandwidth)


 total amount of memory used by VASP on root node    77061. kBytes
========================================================================

   base      :      30000. kBytes
   nonlr-proj:       8128. kBytes
   fftplans  :       3890. kBytes
   grid      :       8747. kBytes
   one-center:         62. kBytes
   wavefun   :      26234. kBytes
 
     INWAV:  cpu time    0.0000: real time    0.0000
 Broyden mixing: mesh for mixing (old mesh)
   NGX = 55   NGY = 39   NGZ =111
  (NGX  =168   NGY  =120   NGZ  =336)
  gives a total of 238095 points

 initial charge density was supplied:
 charge density of overlapping atoms calculated
 number of electron     428.0000000 magnetization 
 keeping initial charge density in first step


--------------------------------------------------------------------------------------------------------


 Maximum index for non-local projection operator          415
 Maximum index for augmentation-charges         1033 (set IRDMAX)


--------------------------------------------------------------------------------------------------------


 First call to EWALD:  gamma=   0.115
 Maximum number of real-space cells 3x 4x 2
 Maximum number of reciprocal cells 3x 2x 5

 FEWALD executed in parallel
    FEWALD:  cpu time    0.0024: real time    0.0024


----------------------------------------- Iteration    1(   1)  ---------------------------------------


    POTLOK:  cpu time    0.0603: real time    0.0603
    SETDIJ:  cpu time    0.0132: real time    0.0133
     EDDAV:  cpu time    5.9174: real time    5.9226
       DOS:  cpu time    0.0009: real time    0.0010
    --------------------------------------------
      LOOP:  cpu time    5.9950: real time    6.0028

 eigenvalue-minimisations  :  2688
 total energy-change (2. order) : 0.5317169E+04  (-0.1616407E+05)
 number of electron     428.0000000 magnetization 
 augmentation part      428.0000000 magnetization 

 Free energy of the ion-electron system (eV)
  ---------------------------------------------------
  alpha Z        PSCENC =       669.58316778
  Ewald energy   TEWEN  =     96843.87072667
  -Hartree energ DENC   =   -120378.60986791
  -exchange      EXHF   =         0.00000000
  -V(xc)+E(xc)   XCENC  =     -2698.09294073
  PAW double counting   =     24290.97379963   -20224.92140970
  entropy T*S    EENTRO =         0.00939830
  eigenvalues    EBANDS =       635.28577253
  atomic energy  EATOM  =     26179.07028664
  Solvation  Ediel_sol  =         0.00000000
  ---------------------------------------------------
  free energy    TOTEN  =      5317.16893321 eV

  energy without entropy =     5317.15953491  energy(sigma->0) =     5317.16658364


--------------------------------------------------------------------------------------------------------




----------------------------------------- Iteration    1(   2)  ---------------------------------------


     EDDAV:  cpu time    5.9516: real time    5.9530
       DOS:  cpu time    0.0011: real time    0.0011
    --------------------------------------------
      LOOP:  cpu time    5.9543: real time    5.9568

 eigenvalue-minimisations  :  2736
 total energy-change (2. order) :-0.4596840E+04  (-0.4466891E+04)
 number of electron     428.0000000 magnetization 
 augmentation part      428.0000000 magnetization 

 Free energy of the ion-electron system (eV)
  ---------------------------------------------------
  alpha Z        PSCENC =       669.58316778
  Ewald energy   TEWEN  =     96843.87072667
  -Hartree energ DENC   =   -120378.60986791
  -exchange      EXHF   =         0.00000000
  -V(xc)+E(xc)   XCENC  =     -2698.09294073
  PAW double counting   =     24290.97379963   -20224.92140970
  entropy T*S    EENTRO =        -0.00390742
  eigenvalues    EBANDS =     -3961.54066695
  atomic energy  EATOM  =     26179.07028664
  Solvation  Ediel_sol  =         0.00000000
  ---------------------------------------------------
  free energy    TOTEN  =       720.32918801 eV

  energy without entropy =      720.33309543  energy(sigma->0) =      720.33016487


--------------------------------------------------------------------------------------------------------




----------------------------------------- Iteration    1(   3)  ---------------------------------------


     EDDAV:  cpu time    9.2088: real time    9.2103
       DOS:  cpu time    0.0010: real time    0.0010
    --------------------------------------------
      LOOP:  cpu time    9.2111: real time    9.2141

 eigenvalue-minimisations  :  4704
 total energy-change (2. order) :-0.1255164E+04  (-0.1215641E+04)
 number of electron     428.0000000 magnetization 
 augmentation part      428.0000000 magnetization 

 Free energy of the ion-electron system (eV)
  ---------------------------------------------------
  alpha Z        PSCENC =       669.58316778
  Ewald energy   TEWEN  =     96843.87072667
  -Hartree energ DENC   =   -120378.60986791
  -exchange      EXHF   =         0.00000000
  -V(xc)+E(xc)   XCENC  =     -2698.09294073
  PAW double counting   =     24290.97379963   -20224.92140970
  entropy T*S    EENTRO =         0.00915202
  eigenvalues    EBANDS =     -5216.71819925
  atomic energy  EATOM  =     26179.07028664
  Solvation  Ediel_sol  =         0.00000000
  ---------------------------------------------------
  free energy    TOTEN  =      -534.83528486 eV

  energy without entropy =     -534.84443687  energy(sigma->0) =     -534.83757286


--------------------------------------------------------------------------------------------------------




----------------------------------------- Iteration    1(   4)  ---------------------------------------


     EDDAV:  cpu time    7.9393: real time    7.9412
       DOS:  cpu time    0.0010: real time    0.0010
    --------------------------------------------
      LOOP:  cpu time    7.9415: real time    7.9448

 eigenvalue-minimisations  :  3952
 total energy-change (2. order) :-0.1907132E+03  (-0.1848292E+03)
 number of electron     428.0000000 magnetization 
 augmentation part      428.0000000 magnetization 

 Free energy of the ion-electron system (eV)
  ---------------------------------------------------
  alpha Z        PSCENC =       669.58316778
  Ewald energy   TEWEN  =     96843.87072667
  -Hartree energ DENC   =   -120378.60986791
  -exchange      EXHF   =         0.00000000
  -V(xc)+E(xc)   XCENC  =     -2698.09294073
  PAW double counting   =     24290.97379963   -20224.92140970
  entropy T*S    EENTRO =        -0.00454128
  eigenvalues    EBANDS =     -5407.41772809
  atomic energy  EATOM  =     26179.07028664
  Solvation  Ediel_sol  =         0.00000000
  ---------------------------------------------------
  free energy    TOTEN  =      -725.54850699 eV

  energy without entropy =     -725.54396571  energy(sigma->0) =     -725.54737167


--------------------------------------------------------------------------------------------------------




----------------------------------------- Iteration    1(   5)  ---------------------------------------


     EDDAV:  cpu time    9.2376: real time    9.2396
       DOS:  cpu time    0.0010: real time    0.0010
    CHARGE:  cpu time    0.1678: real time    0.1689
    MIXING:  cpu time    0.0056: real time    0.0056
    --------------------------------------------
      LOOP:  cpu time    9.4133: real time    9.4179

 eigenvalue-minimisations  :  4736
 total energy-change (2. order) :-0.1765544E+02  (-0.1724289E+02)
 number of electron     427.9999884 magnetization 
 augmentation part       51.0356139 magnetization 

 Broyden mixing:
  rms(total) = 0.76943E+01    rms(broyden)= 0.76942E+01
  rms(prec ) = 0.81572E+01
  weight for this iteration     100.00

 Free energy of the ion-electron system (eV)
  ---------------------------------------------------
  alpha Z        PSCENC =       669.58316778
  Ewald energy   TEWEN  =     96843.87072667
  -Hartree energ DENC   =   -120378.60986791
  -exchange      EXHF   =         0.00000000
  -V(xc)+E(xc)   XCENC  =     -2698.09294073
  PAW double counting   =     24290.97379963   -20224.92140970
  entropy T*S    EENTRO =        -0.00528882
  eigenvalues    EBANDS =     -5425.07241796
  atomic energy  EATOM  =     26179.07028664
  Solvation  Ediel_sol  =         0.00000000
  ---------------------------------------------------
  free energy    TOTEN  =      -743.20394441 eV

  energy without entropy =     -743.19865559  energy(sigma->0) =     -743.20262220


--------------------------------------------------------------------------------------------------------




----------------------------------------- Iteration    1(   6)  ---------------------------------------


    POTLOK:  cpu time    0.0497: real time    0.0497
    SETDIJ:  cpu time    0.0070: real time    0.0070
    EDDIAG:  cpu time    0.9050: real time    0.9057
  RMM-DIIS:  cpu time    4.5733: real time    4.5743
    ORTHCH:  cpu time    0.2786: real time    0.2790
       DOS:  cpu time    0.0009: real time    0.0009
    CHARGE:  cpu time    0.1697: real time    0.1697
    MIXING:  cpu time    0.0031: real time    0.0031
    --------------------------------------------
      LOOP:  cpu time    5.9892: real time    5.9938

 eigenvalue-minimisations  :  4307
 total energy-change (2. order) :-0.3380078E+02  (-0.1566864E+03)
 number of electron     427.9999911 magnetization 
 augmentation part       64.8859565 magnetization 

 Broyden mixing:
  rms(total) = 0.46139E+01    rms(broyden)= 0.46136E+01
  rms(prec ) = 0.60845E+01
  weight for this iteration     100.00

 eigenvalues of (default mixing * dielectric matrix)
  average eigenvalue GAMMA=   0.7968
  0.7968

 Free energy of the ion-electron system (eV)
  ---------------------------------------------------
  alpha Z        PSCENC =       669.58316778
  Ewald energy   TEWEN  =     96843.87072667
  -Hartree energ DENC   =   -121203.58658500
  -exchange      EXHF   =         0.00000000
  -V(xc)+E(xc)   XCENC  =     -2667.43321031
  PAW double counting   =     28771.86694372   -24713.42371121
  entropy T*S    EENTRO =         0.00566686
  eigenvalues    EBANDS =     -4656.95801218
  atomic energy  EATOM  =     26179.07028664
  Solvation  Ediel_sol  =         0.00000000
  ---------------------------------------------------
  free energy    TOTEN  =      -777.00472703 eV

  energy without entropy =     -777.01039389  energy(sigma->0) =     -777.00614374


--------------------------------------------------------------------------------------------------------




----------------------------------------- Iteration    1(   7)  ---------------------------------------


    POTLOK:  cpu time    0.0495: real time    0.0495
    SETDIJ:  cpu time    0.0067: real time    0.0067
    EDDIAG:  cpu time    0.9147: real time    0.9150
  RMM-DIIS:  cpu time    3.9565: real time    3.9572
    ORTHCH:  cpu time    0.2819: real time    0.2820
       DOS:  cpu time    0.0010: real time    0.0010
    CHARGE:  cpu time    0.1819: real time    0.1819
    MIXING:  cpu time    0.0019: real time    0.0019
    --------------------------------------------
      LOOP:  cpu time    5.3956: real time    5.3992

 eigenvalue-minimisations  :  3713
 total energy-change (2. order) : 0.2688200E+02  (-0.3462297E+02)
 number of electron     427.9999913 magnetization 
 augmentation part       62.1800098 magnetization 

 Broyden mixing:
  rms(total) = 0.41319E+01    rms(broyden)= 0.41319E+01
  rms(prec ) = 0.71643E+01
  weight for this iteration     100.00

 eigenvalues of (default mixing * dielectric matrix)
  average eigenvalue GAMMA=   0.6953
  1.0311  0.3595

 Free energy of the ion-electron system (eV)
  ---------------------------------------------------
  alpha Z        PSCENC =       669.58316778
  Ewald energy   TEWEN  =     96843.87072667
  -Hartree energ DENC   =   -120640.39511101
  -exchange      EXHF   =         0.00000000
  -V(xc)+E(xc)   XCENC  =     -2671.09950647
  PAW double counting   =     29576.21655414   -25528.95248379
  entropy T*S    EENTRO =        -0.00968995
  eigenvalues    EBANDS =     -5178.40667005
  atomic energy  EATOM  =     26179.07028664
  Solvation  Ediel_sol  =         0.00000000
  ---------------------------------------------------
  free energy    TOTEN  =      -750.12272604 eV

  energy without entropy =     -750.11303609  energy(sigma->0) =     -750.12030355


--------------------------------------------------------------------------------------------------------




----------------------------------------- Iteration    1(   8)  ---------------------------------------


    POTLOK:  cpu time    0.0494: real time    0.0494
    SETDIJ:  cpu time    0.0069: real time    0.0069
    EDDIAG:  cpu time    0.9188: real time    0.9189
  RMM-DIIS:  cpu time    4.5302: real time    4.5310
    ORTHCH:  cpu time    0.2815: real time    0.2815
       DOS:  cpu time    0.0009: real time    0.0009
    CHARGE:  cpu time    0.1702: real time    0.1702
    MIXING:  cpu time    0.0019: real time    0.0019
    --------------------------------------------
      LOOP:  cpu time    5.9617: real time    5.9651

 eigenvalue-minimisations  :  4274
 total energy-change (2. order) : 0.5603048E+02  (-0.2073856E+02)
 number of electron     427.9999916 magnetization 
 augmentation part       53.5489421 magnetization 

 Broyden mixing:
  rms(total) = 0.33431E+01    rms(broyden)= 0.33431E+01
  rms(prec ) = 0.50838E+01
  weight for this iteration     100.00

 eigenvalues of (default mixing * dielectric matrix)
  average eigenvalue GAMMA=   0.6559
  1.3009  0.4447  0.2221

 Free energy of the ion-electron system (eV)
  ---------------------------------------------------
  alpha Z        PSCENC =       669.58316778
  Ewald energy   TEWEN  =     96843.87072667
  -Hartree energ DENC   =   -120944.55530635
  -exchange      EXHF   =         0.00000000
  -V(xc)+E(xc)   XCENC  =     -2672.54122494
  PAW double counting   =     30471.74856991   -26428.25876852
  entropy T*S    EENTRO =        -0.01679457
  eigenvalues    EBANDS =     -4812.99290531
  atomic energy  EATOM  =     26179.07028664
  Solvation  Ediel_sol  =         0.00000000
  ---------------------------------------------------
  free energy    TOTEN  =      -694.09224868 eV

  energy without entropy =     -694.07545411  energy(sigma->0) =     -694.08805004


--------------------------------------------------------------------------------------------------------




----------------------------------------- Iteration    1(   9)  ---------------------------------------


    POTLOK:  cpu time    0.0496: real time    0.0496
    SETDIJ:  cpu time    0.0069: real time    0.0069
    EDDIAG:  cpu time    0.9610: real time    0.9616
  RMM-DIIS:  cpu time    3.8935: real time    3.8943
    ORTHCH:  cpu time    0.2816: real time    0.2821
       DOS:  cpu time    0.0010: real time    0.0010
    CHARGE:  cpu time    0.1698: real time    0.1698
    MIXING:  cpu time    0.0021: real time    0.0021
    --------------------------------------------
      LOOP:  cpu time    5.3671: real time    5.3714

 eigenvalue-minimisations  :  3670
 total energy-change (2. order) : 0.3876242E+02  (-0.6560829E+01)
 number of electron     427.9999908 magnetization 
 augmentation part       54.7662713 magnetization 

 Broyden mixing:
  rms(total) = 0.18879E+01    rms(broyden)= 0.18879E+01
  rms(prec ) = 0.21527E+01
  weight for this iteration     100.00

 eigenvalues of (default mixing * dielectric matrix)
  average eigenvalue GAMMA=   0.7158
  1.6385  0.5095  0.5095  0.2057

 Free energy of the ion-electron system (eV)
  ---------------------------------------------------
  alpha Z        PSCENC =       669.58316778
  Ewald energy   TEWEN  =     96843.87072667
  -Hartree energ DENC   =   -120913.18584230
  -exchange      EXHF   =         0.00000000
  -V(xc)+E(xc)   XCENC  =     -2669.87964314
  PAW double counting   =     31465.25735640   -27415.77888798
  entropy T*S    EENTRO =        -0.00758079
  eigenvalues    EBANDS =     -4814.25941381
  atomic energy  EATOM  =     26179.07028664
  Solvation  Ediel_sol  =         0.00000000
  ---------------------------------------------------
  free energy    TOTEN  =      -655.32983054 eV

  energy without entropy =     -655.32224974  energy(sigma->0) =     -655.32793534


--------------------------------------------------------------------------------------------------------




----------------------------------------- Iteration    1(  10)  ---------------------------------------


    POTLOK:  cpu time    0.0495: real time    0.0495
    SETDIJ:  cpu time    0.0068: real time    0.0068
    EDDIAG:  cpu time    0.9514: real time    0.9519
  RMM-DIIS:  cpu time    4.2742: real time    4.2749
    ORTHCH:  cpu time    0.2792: real time    0.2792
       DOS:  cpu time    0.0010: real time    0.0010
    CHARGE:  cpu time    0.1709: real time    0.1709
    MIXING:  cpu time    0.0022: real time    0.0022
    --------------------------------------------
      LOOP:  cpu time    5.7368: real time    5.7407

 eigenvalue-minimisations  :  4027
 total energy-change (2. order) : 0.4790982E+01  (-0.4927582E+01)
 number of electron     427.9999910 magnetization 
 augmentation part       58.5476623 magnetization 

 Broyden mixing:
  rms(total) = 0.11651E+01    rms(broyden)= 0.11651E+01
  rms(prec ) = 0.14951E+01
  weight for this iteration     100.00

 eigenvalues of (default mixing * dielectric matrix)
  average eigenvalue GAMMA=   0.7327
  1.9112  0.6128  0.6128  0.3308  0.1961

 Free energy of the ion-electron system (eV)
  ---------------------------------------------------
  alpha Z        PSCENC =       669.58316778
  Ewald energy   TEWEN  =     96843.87072667
  -Hartree energ DENC   =   -120993.14347876
  -exchange      EXHF   =         0.00000000
  -V(xc)+E(xc)   XCENC  =     -2664.93644385
  PAW double counting   =     32348.53669527   -28292.09414197
  entropy T*S    EENTRO =        -0.00181153
  eigenvalues    EBANDS =     -4741.42384899
  atomic energy  EATOM  =     26179.07028664
  Solvation  Ediel_sol  =         0.00000000
  ---------------------------------------------------
  free energy    TOTEN  =      -650.53884874 eV

  energy without entropy =     -650.53703721  energy(sigma->0) =     -650.53839585


--------------------------------------------------------------------------------------------------------




----------------------------------------- Iteration    1(  11)  ---------------------------------------


    POTLOK:  cpu time    0.0494: real time    0.0495
    SETDIJ:  cpu time    0.0068: real time    0.0068
[...]
  in kB      -4.09916    -4.59477    -7.09867    -0.47130     2.27294    -0.43471
  external pressure =       -5.26 kB  Pullay stress =        0.00 kB


 VOLUME and BASIS-vectors are now :
 -----------------------------------------------------------------------------
  energy-cutoff  :      600.00
  volume of cell :     3643.60
      direct lattice vectors                 reciprocal lattice vectors
    13.771350861  0.000000000  0.000000000     0.072614518  0.000000000  0.000000000
     0.000000000  9.564481735  0.000000000     0.000000000  0.104553496  0.000000000
     0.000000000  0.000000000 27.662570434     0.000000000  0.000000000  0.036149931

  length of vectors
    13.771350861  9.564481735 27.662570434     0.072614518  0.104553496  0.036149931


 FORCES acting on ions
    electron-ion (+dipol)            ewald-force                    non-local-force                 convergence-correction
 -----------------------------------------------------------------------------------------------
   -.478E+02 -.347E+02 0.440E+03   0.476E+02 0.345E+02 -.439E+03   0.998E-01 0.874E-01 -.833E+00   0.519E-05 -.240E-05 -.112E-04
   -.299E+02 -.205E+02 -.837E+01   0.300E+02 0.206E+02 0.767E+01   -.921E-01 -.127E+00 0.691E+00   0.164E-04 -.440E-05 -.413E-05
   -.250E+02 0.582E+02 -.202E+03   0.274E+02 -.576E+02 0.199E+03   -.237E+01 -.577E+00 0.262E+01   0.694E-05 -.655E-05 0.199E-05
   0.845E+00 0.733E+01 0.271E+03   -.689E+00 -.706E+01 -.271E+03   -.215E+00 -.338E+00 -.273E+00   0.130E-05 0.154E-05 -.240E-04
   -.694E+02 0.164E+02 0.113E+02   0.687E+02 -.160E+02 -.118E+02   0.698E+00 -.408E+00 0.498E+00   -.587E-05 -.135E-04 -.107E-04
   -.453E+02 0.446E+01 0.385E+03   0.446E+02 -.385E+01 -.383E+03   0.698E+00 -.982E+00 -.223E+01   0.671E-06 0.390E-05 -.187E-04
   -.386E+03 0.452E+01 0.812E+03   0.386E+03 -.367E+01 -.813E+03   0.327E+00 -.325E+00 0.883E+00   0.242E-04 0.356E-04 -.819E-04
   -.251E+03 0.512E+02 -.124E+04   0.248E+03 -.510E+02 0.124E+04   0.259E+01 -.185E+00 0.104E+01   -.645E-05 0.532E-04 0.221E-04
   0.967E+02 -.944E+01 0.189E+04   -.963E+02 0.838E+01 -.188E+04   -.549E+00 0.600E+00 -.439E+01   0.865E-04 -.208E-04 -.740E-04
   0.149E+03 -.315E+01 0.746E+02   -.150E+03 0.303E+01 -.733E+02   0.594E+00 0.115E+00 -.137E+01   0.541E-04 0.256E-04 -.499E-04
   -.580E+02 0.140E+03 0.196E+04   0.587E+02 -.140E+03 -.195E+04   -.480E+00 -.409E+00 -.272E+01   0.166E-04 -.133E-05 -.548E-04
   0.450E+02 0.668E+02 0.883E+02   -.449E+02 -.674E+02 -.876E+02   -.773E-01 0.584E+00 -.708E+00   0.403E-04 0.159E-04 -.374E-04
   -.396E+03 -.209E+02 0.108E+04   0.397E+03 0.196E+02 -.108E+04   -.768E+00 0.168E+01 -.167E+01   -.336E-04 -.312E-04 -.118E-03
   -.239E+03 0.342E+02 -.111E+04   0.240E+03 -.336E+02 0.111E+04   -.952E+00 -.650E+00 0.835E+00   -.218E-04 0.334E-06 -.162E-04
   0.294E+03 -.117E+03 0.180E+04   -.294E+03 0.118E+03 -.179E+04   0.232E+00 -.353E+00 -.421E+01   0.693E-04 0.648E-04 -.716E-04
   0.384E+03 -.114E+03 0.775E+02   -.384E+03 0.114E+03 -.772E+02   0.314E+00 0.198E+00 -.277E+00   0.499E-04 -.349E-04 -.677E-05
   -.178E+02 0.838E+00 0.325E+03   0.172E+02 -.728E+00 -.325E+03   0.630E+00 -.131E+00 0.172E+00   0.316E-04 -.271E-05 -.461E-04
   -.178E+02 -.527E+02 -.456E+03   0.172E+02 0.523E+02 0.455E+03   0.548E+00 0.437E+00 0.955E+00   0.226E-04 0.254E-05 0.594E-05
   0.176E+03 -.614E+01 0.309E+03   -.175E+03 0.600E+01 -.310E+03   -.145E+01 0.575E+00 0.480E+00   0.642E-07 0.200E-04 -.422E-04
   0.191E+03 -.264E+02 -.435E+03   -.190E+03 0.280E+02 0.433E+03   -.100E+01 -.159E+01 0.240E+01   0.812E-05 0.151E-04 0.139E-04
   0.143E+03 -.525E+02 0.385E+02   -.142E+03 0.527E+02 -.385E+02   -.375E+00 -.199E+00 0.322E-01   -.755E-05 -.113E-04 -.131E-05
   0.117E+03 -.553E+02 0.547E+03   -.115E+03 0.554E+02 -.544E+03   -.884E+00 -.232E+00 -.266E+01   0.353E-05 0.146E-04 -.156E-04
   -.126E+03 0.774E+02 0.187E+02   0.126E+03 -.765E+02 -.190E+02   -.935E-01 -.886E+00 0.372E+00   -.388E-05 -.152E-04 -.195E-04
   -.100E+03 0.599E+02 0.599E+03   0.993E+02 -.594E+02 -.596E+03   0.441E+00 -.535E+00 -.288E+01   -.860E-05 0.575E-05 -.171E-04
   0.711E+02 -.180E+02 0.278E+03   -.720E+02 0.173E+02 -.278E+03   0.918E+00 0.893E+00 -.578E+00   0.221E-04 0.125E-04 -.338E-04
   0.372E+02 -.452E+02 -.373E+03   -.376E+02 0.432E+02 0.372E+03   0.458E+00 0.195E+01 0.132E+01   0.980E-05 -.160E-05 0.798E-05
   -.108E+03 0.281E+02 -.295E+03   0.107E+03 -.295E+02 0.293E+03   0.524E+00 0.144E+01 0.221E+01   -.107E-04 -.722E-05 0.385E-06
   -.159E+03 0.502E+01 0.299E+03   0.158E+03 -.499E+01 -.299E+03   0.350E+00 -.215E+00 -.635E-01   -.362E-05 0.138E-04 -.255E-04
   -.150E+03 -.526E+01 0.560E+03   0.149E+03 0.521E+01 -.557E+03   0.751E+00 0.135E-01 -.254E+01   -.203E-05 0.115E-04 -.140E-04
   -.181E+03 -.183E+02 0.279E+02   0.179E+03 0.183E+02 -.291E+02   0.109E+01 0.182E-01 0.115E+01   -.115E-04 0.758E-05 -.231E-05
   0.778E+02 0.600E+01 0.287E+03   -.779E+02 -.572E+01 -.287E+03   -.399E-02 0.335E-01 -.758E-01   0.195E-04 -.957E-05 -.362E-04
   0.112E+03 0.389E+02 -.406E+03   -.110E+03 -.370E+02 0.405E+03   -.173E+01 -.197E+01 0.120E+01   0.188E-04 0.148E-05 0.225E-05
   0.732E+02 0.536E+01 0.308E+02   -.739E+02 -.482E+01 -.326E+02   0.649E+00 -.551E+00 0.182E+01   0.206E-04 -.199E-05 -.205E-05
   0.337E+02 -.842E+00 0.579E+03   -.344E+02 0.776E+00 -.576E+03   0.624E+00 0.905E-02 -.241E+01   0.657E-05 0.933E-05 -.143E-04
   0.129E+03 0.900E+01 0.276E+03   -.128E+03 -.920E+01 -.276E+03   -.870E+00 0.631E+00 -.501E+00   0.191E-04 -.357E-05 -.374E-04
   0.103E+03 0.111E+02 -.391E+03   -.102E+03 -.985E+01 0.390E+03   -.192E+01 -.127E+01 0.155E+01   0.238E-04 0.157E-04 0.104E-04
   0.132E+03 0.745E+01 0.303E+03   -.133E+03 -.726E+01 -.302E+03   0.124E+00 -.357E+00 -.663E+00   -.113E-04 -.127E-04 -.342E-04
   0.913E+02 -.405E+00 -.337E+03   -.929E+02 -.376E-01 0.335E+03   0.161E+01 0.446E+00 0.193E+01   -.168E-04 -.117E-04 0.153E-04
   0.127E+03 0.391E+02 0.510E+03   -.127E+03 -.389E+02 -.508E+03   0.149E+00 -.461E+00 -.275E+01   -.164E-04 -.944E-05 -.323E-04
   0.150E+03 0.360E+02 0.439E+02   -.150E+03 -.352E+02 -.441E+02   -.143E+00 -.807E+00 0.260E+00   -.666E-05 0.128E-04 -.180E-04
   -.981E+02 -.144E+01 0.566E+03   0.983E+02 0.142E+01 -.563E+03   -.434E+00 0.410E-02 -.305E+01   -.129E-05 -.113E-04 -.201E-04
   -.149E+03 0.747E+01 -.704E+00   0.148E+03 -.742E+01 0.112E+01   0.450E+00 -.437E-01 -.413E+00   -.622E-05 -.540E-05 -.153E-04
   0.129E+03 0.289E+02 0.537E+03   -.129E+03 -.292E+02 -.534E+03   -.259E+00 0.344E+00 -.251E+01   0.836E-05 -.160E-04 -.260E-04
   0.150E+03 0.272E+02 0.335E+02   -.149E+03 -.273E+02 -.342E+02   -.726E+00 0.841E-01 0.626E+00   0.177E-04 0.366E-05 -.137E-04
   0.104E+03 -.979E+01 -.364E+03   -.104E+03 0.809E+01 0.361E+03   0.404E-01 0.169E+01 0.288E+01   0.786E-05 -.145E-04 0.149E-04
   0.121E+03 -.401E+01 0.318E+03   -.121E+03 0.372E+01 -.318E+03   0.528E+00 0.295E+00 -.377E+00   0.128E-04 0.139E-05 -.405E-04
   0.386E+02 0.271E+01 0.254E+03   -.384E+02 -.269E+01 -.255E+03   -.186E+00 -.345E-01 0.139E+00   -.236E-04 -.109E-04 -.353E-04
   0.172E+02 -.135E+01 -.325E+03   -.182E+02 0.118E+01 0.324E+03   0.104E+01 0.164E+00 0.162E+01   -.255E-04 0.897E-05 0.389E-05
   -.405E+02 0.430E-01 0.519E+03   0.407E+02 0.314E+00 -.516E+03   -.558E-01 -.279E+00 -.286E+01   -.111E-04 -.192E-05 -.160E-04
   -.694E+02 -.137E+02 0.279E+02   0.693E+02 0.137E+02 -.279E+02   0.154E-01 -.229E-01 -.315E-01   -.903E-05 0.194E-04 -.923E-05
   0.521E+02 -.286E+01 0.502E+03   -.521E+02 0.222E+01 -.498E+03   -.286E-01 0.233E+00 -.309E+01   -.167E-04 0.204E-06 -.263E-04
   0.537E+02 -.183E+01 -.115E+02   -.532E+02 0.129E+01 0.120E+02   -.516E+00 0.546E+00 -.497E+00   -.206E-04 -.623E-05 -.112E-04
   -.681E+02 -.462E+01 0.283E+03   0.681E+02 0.471E+01 -.283E+03   0.351E-01 0.324E+00 0.517E-01   -.933E-05 0.486E-05 -.251E-04
   -.665E+02 -.638E+02 -.352E+03   0.675E+02 0.629E+02 0.350E+03   -.959E+00 0.912E+00 0.226E+01   -.711E-05 0.249E-05 0.107E-04
   0.414E+02 0.958E+00 0.515E+03   -.407E+02 -.843E+00 -.511E+03   -.840E+00 -.303E+00 -.324E+01   -.121E-04 -.185E-05 -.206E-04
   0.361E+02 -.115E+01 0.226E+02   -.356E+02 0.150E+01 -.220E+02   -.471E+00 -.350E+00 -.580E+00   -.188E-04 0.447E-06 -.125E-04
   -.959E+02 0.153E+01 0.264E+03   0.955E+02 -.160E+01 -.265E+03   0.571E+00 0.334E-01 -.467E+00   -.445E-05 -.120E-05 -.374E-04
   -.131E+03 0.273E+02 -.386E+03   0.129E+03 -.279E+02 0.385E+03   0.161E+01 0.609E+00 0.185E+01   -.771E-05 -.133E-04 0.143E-05
   0.247E+02 0.381E+02 -.286E+03   -.240E+02 -.373E+02 0.286E+03   -.719E+00 -.747E+00 0.511E+00   -.621E-05 -.388E-05 0.126E-04
   0.530E+02 -.532E+01 0.291E+03   -.523E+02 0.524E+01 -.291E+03   -.666E+00 0.264E+00 -.109E+00   -.114E-04 0.100E-04 -.358E-04
   -.141E+03 -.429E+02 0.596E+03   0.141E+03 0.423E+02 -.593E+03   0.847E+00 0.442E-01 -.330E+01   0.214E-05 -.371E-05 -.788E-05
   -.143E+03 -.456E+02 0.133E+02   0.143E+03 0.453E+02 -.127E+02   0.882E-01 0.371E+00 -.568E+00   0.157E-05 0.130E-04 -.449E-05
   -.158E+03 0.790E+01 0.288E+03   0.157E+03 -.809E+01 -.289E+03   0.806E+00 0.424E+00 0.155E+00   -.949E-05 -.132E-04 -.352E-04
   -.145E+03 -.433E+02 -.339E+03   0.144E+03 0.439E+02 0.338E+03   0.494E+00 -.628E+00 0.160E+01   -.563E-05 0.478E-05 0.974E-06
   0.175E+03 0.606E+02 -.582E+03   -.176E+03 -.594E+02 0.587E+03   0.265E+00 -.122E+01 -.469E+01   0.463E-04 -.374E-04 -.261E-05
   -.117E+03 0.225E+02 -.807E+03   0.119E+03 -.269E+02 0.821E+03   -.108E+01 0.447E+01 -.145E+02   -.149E-04 -.431E-05 0.538E-05
   0.196E+03 0.136E+02 -.579E+03   -.197E+03 -.162E+02 0.585E+03   0.105E+01 0.256E+01 -.530E+01   -.239E-04 0.534E-04 0.102E-04
   -.118E+03 0.201E+02 -.730E+03   0.117E+03 -.187E+02 0.741E+03   0.572E+00 -.140E+01 -.113E+02   0.163E-04 -.366E-05 0.185E-04
   0.986E+02 -.150E+02 -.835E+03   -.995E+02 0.172E+02 0.855E+03   0.918E+00 -.216E+01 -.198E+02   0.618E-05 -.593E-05 0.170E-04
   0.102E+03 -.382E+02 -.922E+03   -.980E+02 0.379E+02 0.941E+03   -.430E+01 0.310E+00 -.192E+02   0.209E-04 0.455E-04 0.260E-04
   -.134E+03 -.134E+03 -.102E+04   0.135E+03 0.137E+03 0.104E+04   -.150E+01 -.237E+01 -.209E+02   -.388E-05 -.103E-04 -.142E-04
   0.109E+03 0.306E+01 -.980E+03   -.112E+03 -.501E+01 0.100E+04   0.327E+01 0.195E+01 -.213E+02   0.554E-04 0.426E-06 0.199E-04
   0.180E+02 -.165E+02 -.840E+03   -.165E+02 0.137E+02 0.858E+03   -.148E+01 0.281E+01 -.186E+02   -.355E-04 -.376E-04 0.501E-04
   0.103E+03 -.109E+02 -.941E+03   -.108E+03 0.141E+02 0.959E+03   0.483E+01 -.313E+01 -.182E+02   0.123E-04 0.685E-05 -.186E-04
   0.120E+03 0.332E+02 -.591E+03   -.122E+03 -.339E+02 0.597E+03   0.180E+01 0.726E+00 -.606E+01   0.106E-04 -.234E-04 0.179E-04
   -.170E+03 -.536E+02 -.975E+03   0.169E+03 0.584E+02 0.994E+03   0.132E+01 -.483E+01 -.190E+02   -.231E-04 -.296E-04 0.114E-04
   -.333E+03 -.437E+02 -.554E+03   0.337E+03 0.465E+02 0.560E+03   -.382E+01 -.275E+01 -.552E+01   -.285E-04 0.345E-04 0.216E-04
   0.101E+03 0.151E+03 -.103E+04   -.104E+03 -.157E+03 0.106E+04   0.331E+01 0.610E+01 -.231E+02   0.226E-04 0.120E-04 -.864E-06
 -----------------------------------------------------------------------------------------------
   -.627E+01 -.109E+01 0.228E+03   0.568E-12 -.171E-12 0.477E-11   0.626E+01 0.116E+01 -.228E+03   0.316E-03 0.107E-03 -.108E-02
 
 
 POSITION                                       TOTAL-FORCE (eV/Angst)
 -----------------------------------------------------------------------------------
      8.57631      8.29685     10.39845        -0.074525     -0.163889      0.022444
      8.61805      3.82819     15.07328         0.003129      0.002134     -0.002606
      8.72780      5.94943     17.00111         0.002712     -0.002997      0.000224
      8.51616      0.79995     12.43874        -0.059688     -0.066774      0.021293
     13.44859      6.10424     15.21475        -0.005739     -0.000054     -0.001509
     13.49094      1.15316     10.44749        -0.032736     -0.371302     -0.087102
     10.03344      3.28428     12.67411        -0.061636      0.530439     -0.489822
      9.91353      8.31601     17.51245         0.003802     -0.005390      0.001429
      7.12524      5.81577     10.15765        -0.143240     -0.461069      0.908250
      7.02290      1.29341     15.04275         0.000802     -0.006070      0.000603
      8.51222      3.28036     10.20450         0.262555      0.046114      0.827460
      8.48446      8.30349     15.01669         0.001263     -0.001518     -0.001338
     10.22263      8.06723     12.77991         0.262870      0.322640     -0.136238
     10.09193      3.75472     17.57684        -0.001597     -0.009190      0.000490
      5.42664      8.10481     10.20639         0.306844      0.061238      0.915536
      5.31024      3.52091     15.00366        -0.002191     -0.001743     -0.002725
      8.52843      5.75423     12.65640         0.039859     -0.022229      0.035038
      8.50212      1.10888     17.48610        -0.000668      0.001618      0.008493
      3.84829      7.97317     12.47259        -0.532083      0.426942     -0.601607
      3.80295      3.32952     17.38928        -0.002408      0.004403      0.000891
      3.78403      5.65432     14.79937        -0.002588      0.000142      0.004544
      3.90063      0.73891     10.00000         0.457657     -0.169481      0.329426
     10.31109      6.17640     14.91744         0.000903      0.005375     -0.001150
     10.19112      1.10470     10.13736        -0.213668     -0.017649      0.300973
      6.82945      7.99424     12.66670         0.068628      0.205445     -0.335550
      6.85420      3.66933     17.31425         0.003510     -0.000591     -0.007262
     11.69439      6.30258     17.39799         0.001252     -0.005433     -0.002491
     11.66772      1.05372     12.57547        -0.307932     -0.186147     -0.495447
     11.73919      3.33868     10.41199        -0.245162     -0.042155      0.592860
     11.87869      8.42149     15.31221         0.000108     -0.006051     -0.001373
      7.18522      3.24644     12.75390        -0.124191      0.312734     -0.450529
      7.08971      8.05034     17.48002        -0.002488     -0.003767     -0.003380
      6.79864      6.00192     14.98329         0.000611     -0.005612      0.006262
      6.87795      0.97560     10.08695        -0.082656     -0.058200      0.238164
      5.51084      5.55012     12.48419        -0.084057      0.428620     -0.364528
      5.53353      0.93608     17.47518         0.001506     -0.005783      0.002184
      3.51249      3.50019     12.83519        -0.025893     -0.168359     -0.280709
      3.08776      8.75783     17.51924         0.002012      0.002339     -0.002154
      3.46798      5.87237     10.40868         0.088331     -0.234910     -0.080502
      3.46411      1.29970     15.10908        -0.000547     -0.002351      0.000574
     11.91771      8.21633     10.24534        -0.241366     -0.021940      0.712252
     11.90020      3.60252     15.16708         0.003136      0.000474      0.003776
      5.24135      3.36543     10.32679         0.133985      0.076235      0.142475
      5.15970      8.37890     15.08075         0.004404     -0.002911     -0.004125
      4.84815      6.22642     17.37423         0.001319     -0.008498     -0.001587
      5.28930      0.99064     12.60849         0.240883      0.004218     -0.501842
      1.60538      5.84491     12.85122        -0.028654     -0.017180     -0.496470
      1.31209      1.59413     17.48250         0.002247     -0.004676     -0.007870
     13.72038      5.67134     10.18293         0.173482      0.077012      0.585163
     13.68248      1.07319     14.88745        -0.003873     -0.005674      0.004394
      1.63456      8.33987     10.36453         0.036707     -0.407750      0.135271
      1.55963      3.71881     15.25324        -0.001331      0.001977     -0.002776
     13.76831      3.16119     12.53308         0.063645      0.411086     -0.289474
      0.29031      8.23265     17.67658         0.002053     -0.003250     -0.002103
      1.99440      3.17314     10.17666        -0.155792     -0.188716      0.592508
      1.85863      8.05942     15.05490         0.004556     -0.001568      0.001095
     13.48051      8.37930     12.86886         0.172462     -0.032453     -0.639390
     13.17253      4.04293     17.99555        -0.005172      0.000287      0.000245
      1.83709      5.78903     17.49477         0.002518     -0.001932     -0.001307
      2.02729      0.87737     12.46815         0.012813      0.178216     -0.529244
     10.07171      5.79402     10.14663         0.184197     -0.592939      0.148940
     10.05511      1.22706     14.96465         0.001323     -0.000280      0.002845
     11.97051      5.66181     12.67660        -0.118754      0.232703     -0.714979
     11.79025      1.20251     17.61113         0.003274     -0.000127     -0.001141
      5.09083      8.42138     17.41568         0.009079      0.000715     -0.000531
     13.42607      2.11573     18.66496        -0.002724     -0.003615     -0.000284
      3.48489      1.21996     17.47358         0.001779     -0.002642     -0.001421
     13.59420      6.18026     18.28561         0.001224     -0.006074      0.002533
      3.58045      4.99582     18.45925         0.002940     -0.004209     -0.006345
      5.48973      2.73239     18.37790         0.001446     -0.001372      0.002009
     10.12081      0.44301     18.66456        -0.006038     -0.000623      0.004056
      7.05401      0.22487     18.51096        -0.003279     -0.003835     -0.003457
      2.14425      7.61187     18.66448         0.002648      0.002104      0.000124
      8.44881      2.93410     18.36956         0.002269     -0.000426     -0.001035
      6.88982      5.78482     17.28386         0.002375      0.000021     -0.006720
     11.31516      4.81091     18.68486         0.004848      0.003453      0.000336
     11.95946      8.43318     17.48192        -0.004554     -0.006750      0.005608
      8.60662      7.21986     18.45793        -0.002733     -0.000533     -0.000647
 -----------------------------------------------------------------------------------
    total drift:                               -0.005872      0.075022     -0.042966


--------------------------------------------------------------------------------------------------------



  FREE ENERGIE OF THE ION-ELECTRON SYSTEM (eV)
  ---------------------------------------------------
  free  energy   TOTEN  =      -646.71306095 eV

  energy  without entropy=     -646.70794579  energy(sigma->0) =     -646.71178216
 


--------------------------------------------------------------------------------------------------------


    POTLOK:  cpu time    0.0631: real time    0.0635


--------------------------------------------------------------------------------------------------------


     LOOP+:  cpu time  260.5125: real time  260.7173
    4ORBIT:  cpu time    0.0000: real time    0.0000

 total amount of memory used by VASP on root node    77061. kBytes
========================================================================

   base      :      30000. kBytes
   nonlr-proj:       8128. kBytes
   fftplans  :       3890. kBytes
   grid      :       8747. kBytes
   one-center:         62. kBytes
   wavefun   :      26234. kBytes
 
  
  
 General timing and accounting informations for this job:
 ========================================================
  
                  Total CPU time used (sec):      277.463
                            User time (sec):      272.948
                          System time (sec):        4.515
                         Elapsed time (sec):      277.752
  
                   Maximum memory used (kb):      152912.
                   Average memory used (kb):           0.
  
                          Minor page faults:        42249
                          Major page faults:            0
                 Voluntary context switches:         3085
