 vasp.5.4.1 05Feb16 (build Mar 19 2020 08:54:17) complex                        
  
 executed on           IFC91_ompi date 2021.11.11  21:49:18
 running on   96 total cores
 distrk:  each k-point on   96 cores,    1 groups
 distr:  one band on NCORES_PER_BAND=  24 cores,    4 groups


--------------------------------------------------------------------------------------------------------


 INCAR:
 POTCAR:    PAW_PBE Al 04Jan2001                  
 POTCAR:    PAW_PBE Nb_sv 25May2007               
 POTCAR:    PAW_PBE Ta 17Jan2003                  
 POTCAR:    PAW_PBE Ti 08Apr2002                  
 POTCAR:   PAW_PBE Zr 08Apr2002                   
 POTCAR:    PAW_PBE O 08Apr2002                   

 ----------------------------------------------------------------------------- 
|                                                                             |
|           W    W    AA    RRRRR   N    N  II  N    N   GGGG   !!!           |
|           W    W   A  A   R    R  NN   N  II  NN   N  G    G  !!!           |
|           W    W  A    A  R    R  N N  N  II  N N  N  G       !!!           |
|           W WW W  AAAAAA  RRRRR   N  N N  II  N  N N  G  GGG   !            |
|           WW  WW  A    A  R   R   N   NN  II  N   NN  G    G                |
|           W    W  A    A  R    R  N    N  II  N    N   GGGG   !!!           |
|                                                                             |
|      For optimal performance we recommend to set                            |
|        NCORE= 4 - approx SQRT( number of cores)                             |
|      NCORE specifies how many cores store one orbital (NPAR=cpu/NCORE).     |
|      This setting can  greatly improve the performance of VASP for DFT.     |
|      The default, NPAR=number of cores might be grossly inefficient         |
|      on modern multi-core architectures or massively parallel machines.     |
|      Do your own testing !!!!                                               |
|      Unfortunately you need to use the default for GW and RPA calculations. |
|      (for HF NCORE is supported but not extensively tested yet)             |
|                                                                             |
 ----------------------------------------------------------------------------- 

 POTCAR:    PAW_PBE Al 04Jan2001                  
   VRHFIN =Al: s2p1                                                             
   LEXCH  = PE                                                                  
   EATOM  =    53.5387 eV,    3.9350 Ry                                         
                                                                                
   TITEL  = PAW_PBE Al 04Jan2001                                                
   LULTRA =        F    use ultrasoft PP ?                                      
   IUNSCR =        1    unscreen: 0-lin 1-nonlin 2-no                           
   RPACOR =    1.500    partial core radius                                     
   POMASS =   26.981; ZVAL   =    3.000    mass and valenz                      
   RCORE  =    1.900    outmost cutoff radius                                   
   RWIGS  =    2.650; RWIGS  =    1.402    wigner-seitz radius (au A)           
   ENMAX  =  240.300; ENMIN  =  180.225 eV                                      
   ICORE  =        2    local potential                                         
   LCOR   =        T    correct aug charges                                     
   LPAW   =        T    paw PP                                                  
   EAUG   =  291.052                                                            
   DEXC   =    0.000                                                            
   RMAX   =    1.939    core radius for proj-oper                               
   RAUG   =    1.300    factor for augmentation sphere                          
   RDEP   =    1.966    radius for radial grids                                 
   RDEPT  =    1.856    core radius for aug-charge                              
                                                                                
   Atomic configuration                                                         
    6 entries                                                                   
     n  l   j            E        occ.                                          
     1  0  0.50     -1511.1048   2.0000                                         
     2  0  0.50      -108.1629   2.0000                                         
     2  1  1.50       -69.6402   6.0000                                         
     3  0  0.50        -7.7528   2.0000                                         
     3  1  1.50        -2.7121   1.0000                                         
     3  2  2.50        -2.7212   0.0000                                         
   Description                                                                  
     l       E           TYP  RCUT    TYP  RCUT                                 
     0     -7.7528455     23  1.900                                             
     0     -3.3096929     23  1.900                                             
     1     -2.7120682     23  1.900                                             
     1     13.6058260     23  1.900                                             
     2     -2.7211652      7  1.900                                             
  local pseudopotential read in
  partial core-charges read in
  partial kinetic energy density read in
  atomic valenz-charges read in
  non local Contribution for L=           0  read in
    real space projection operators read in
  non local Contribution for L=           0  read in
    real space projection operators read in
  non local Contribution for L=           1  read in
    real space projection operators read in
  non local Contribution for L=           1  read in
    real space projection operators read in
    PAW grid and wavefunctions read in
 
   number of l-projection  operators is LMAX  =           4
   number of lm-projection operators is LMMAX =           8
 
 POTCAR:    PAW_PBE Nb_sv 25May2007               
   VRHFIN =Nb: 4p5s4d                                                           
   LEXCH  = PE                                                                  
   EATOM  =  1555.1913 eV,  114.3033 Ry                                         
                                                                                
   TITEL  = PAW_PBE Nb_sv 25May2007                                             
   LULTRA =        F    use ultrasoft PP ?                                      
   IUNSCR =        1    unscreen: 0-lin 1-nonlin 2-no                           
   RPACOR =    1.800    partial core radius                                     
   POMASS =   92.910; ZVAL   =   13.000    mass and valenz                      
   RCORE  =    2.400    outmost cutoff radius                                   
   RWIGS  =    2.400; RWIGS  =    1.270    wigner-seitz radius (au A)           
   ENMAX  =  293.235; ENMIN  =  219.927 eV                                      
   ICORE  =        3    local potential                                         
   LCOR   =        T    correct aug charges                                     
   LPAW   =        T    paw PP                                                  
   EAUG   =  455.659                                                            
   DEXC   =    0.000                                                            
   RMAX   =    2.456    core radius for proj-oper                               
   RAUG   =    1.300    factor for augmentation sphere                          
   RDEP   =    2.451    radius for radial grids                                 
   RDEPT  =    1.956    core radius for aug-charge                              
                                                                                
   Atomic configuration                                                         
   11 entries                                                                   
     n  l   j            E        occ.                                          
     1  0  0.50    -18805.2457   2.0000                                         
     2  0  0.50     -2630.2869   2.0000                                         
     2  1  1.50     -2348.4046   6.0000                                         
     3  0  0.50      -438.8757   2.0000                                         
     3  1  1.50      -346.7588   6.0000                                         
     3  2  2.50      -196.2560  10.0000                                         
     4  0  0.50       -58.3859   2.0000                                         
     5  0  0.50        -3.9816   1.0000                                         
     4  1  1.50       -34.5141   6.0000                                         
     4  2  2.50        -3.0408   4.0000                                         
     4  3  2.50        -1.3606   0.0000                                         
   Description                                                                  
     l       E           TYP  RCUT    TYP  RCUT                                 
     0    -58.3859094     23  2.200                                             
     0     -3.9816262     23  2.200                                             
     1    -34.5140738     23  2.200                                             
     1     13.6058260     23  2.200                                             
     2     -3.0408010     23  2.200                                             
     2     -0.1283038     23  2.200                                             
     3     -1.3605826     23  2.400                                             
  local pseudopotential read in
  partial core-charges read in
  partial kinetic energy density read in
  atomic valenz-charges read in
  non local Contribution for L=           0  read in
    real space projection operators read in
  non local Contribution for L=           0  read in
    real space projection operators read in
  non local Contribution for L=           1  read in
    real space projection operators read in
  non local Contribution for L=           1  read in
    real space projection operators read in
  non local Contribution for L=           2  read in
    real space projection operators read in
  non local Contribution for L=           2  read in
    real space projection operators read in
    PAW grid and wavefunctions read in
 
   number of l-projection  operators is LMAX  =           6
   number of lm-projection operators is LMMAX =          18
 
 POTCAR:    PAW_PBE Ta 17Jan2003                  
   VRHFIN =Ta:  6s5d                                                            
   LEXCH  = PE                                                                  
   EATOM  =   130.6506 eV,    9.6025 Ry                                         
                                                                                
   TITEL  = PAW_PBE Ta 17Jan2003                                                
   LULTRA =        F    use ultrasoft PP ?                                      
   IUNSCR =        1    unscreen: 0-lin 1-nonlin 2-no                           
   RPACOR =    2.330    partial core radius                                     
   POMASS =  180.948; ZVAL   =    5.000    mass and valenz                      
   RCORE  =    2.900    outmost cutoff radius                                   
   RWIGS  =    2.840; RWIGS  =    1.503    wigner-seitz radius (au A)           
   ENMAX  =  223.667; ENMIN  =  167.750 eV                                      
   RCLOC  =    2.205    cutoff for local pot                                    
   LCOR   =        T    correct aug charges                                     
   LPAW   =        T    paw PP                                                  
   EAUG   =  332.075                                                            
   DEXC   =    0.000                                                            
   RMAX   =    2.970    core radius for proj-oper                               
   RAUG   =    1.300    factor for augmentation sphere                          
   RDEP   =    3.060    radius for radial grids                                 
   RDEPT  =    2.354    core radius for aug-charge                              
                                                                                
   Atomic configuration                                                         
   16 entries                                                                   
     n  l   j            E        occ.                                          
     1  0  0.50    -67341.2807   2.0000                                         
     2  0  0.50    -11566.9376   2.0000                                         
     2  1  1.50    -10134.1182   6.0000                                         
     3  0  0.50     -2648.5620   2.0000                                         
     3  1  1.50     -2222.6012   6.0000                                         
     3  2  2.50     -1726.3120  10.0000                                         
     4  0  0.50      -538.6961   2.0000                                         
     4  1  1.50      -399.0129   6.0000                                         
     4  2  2.50      -220.3959  10.0000                                         
     4  3  3.50       -23.0374  14.0000                                         
     5  0  0.50       -71.2901   2.0000                                         
     5  1  1.50       -37.8225   6.0000                                         
     5  2  2.50        -2.6455   4.0000                                         
     6  0  0.50        -4.9623   1.0000                                         
     6  1  1.50        -1.3606   0.0000                                         
     5  3  2.50        -1.3606   0.0000                                         
   Description                                                                  
     l       E           TYP  RCUT    TYP  RCUT                                 
     2     -2.6455043     23  2.500                                             
     2     -0.6258895     23  2.500                                             
     0     -4.9622780     23  2.500                                             
     0      4.7531321     23  2.500                                             
     1     -1.3605826     23  2.900                                             
     1     27.2116520     23  2.900                                             
  local pseudopotential read in
  partial core-charges read in
  partial kinetic energy density read in
  atomic valenz-charges read in
  non local Contribution for L=           2  read in
    real space projection operators read in
  non local Contribution for L=           2  read in
    real space projection operators read in
  non local Contribution for L=           0  read in
    real space projection operators read in
  non local Contribution for L=           0  read in
    real space projection operators read in
  non local Contribution for L=           1  read in
    real space projection operators read in
  non local Contribution for L=           1  read in
    real space projection operators read in
    PAW grid and wavefunctions read in
 
   number of l-projection  operators is LMAX  =           6
   number of lm-projection operators is LMMAX =          18
 
 POTCAR:    PAW_PBE Ti 08Apr2002                  
   VRHFIN =Ti: d3 s1                                                            
   LEXCH  = PE                                                                  
   EATOM  =    94.7928 eV,    6.9671 Ry                                         
                                                                                
   TITEL  = PAW_PBE Ti 08Apr2002                                                
   LULTRA =        F    use ultrasoft PP ?                                      
   IUNSCR =        1    unscreen: 0-lin 1-nonlin 2-no                           
   RPACOR =    2.200    partial core radius                                     
   POMASS =   47.880; ZVAL   =    4.000    mass and valenz                      
   RCORE  =    2.800    outmost cutoff radius                                   
   RWIGS  =    2.500; RWIGS  =    1.323    wigner-seitz radius (au A)           
   ENMAX  =  178.330; ENMIN  =  133.747 eV                                      
   RCLOC  =    2.215    cutoff for local pot                                    
   LCOR   =        T    correct aug charges                                     
   LPAW   =        T    paw PP                                                  
   EAUG   =  328.883                                                            
   DEXC   =    0.000                                                            
   RMAX   =    2.868    core radius for proj-oper                               
   RAUG   =    1.300    factor for augmentation sphere                          
   RDEP   =    2.885    radius for radial grids                                 
   RDEPT  =    2.320    core radius for aug-charge                              
                                                                                
   Atomic configuration                                                         
    9 entries                                                                   
     n  l   j            E        occ.                                          
     1  0  0.50     -4865.3608   2.0000                                         
     2  0  0.50      -533.1367   2.0000                                         
     2  1  1.50      -440.5031   6.0000                                         
     3  0  0.50       -59.3186   2.0000                                         
     3  1  1.50       -35.7012   6.0000                                         
     3  2  2.50        -1.9157   3.0000                                         
     4  0  0.50        -3.7291   1.0000                                         
     4  1  1.50        -4.0817   0.0000                                         
     4  3  2.50        -1.3606   0.0000                                         
   Description                                                                  
     l       E           TYP  RCUT    TYP  RCUT                                 
     2     -1.9156924     23  2.800                                             
     2     -0.4062961     23  2.800                                             
     0     -3.7290832     23  2.800                                             
     0     20.4087390     23  2.800                                             
     1     -5.4423304     23  2.800                                             
  local pseudopotential read in
  partial core-charges read in
  partial kinetic energy density read in
  atomic valenz-charges read in
  non local Contribution for L=           2  read in
    real space projection operators read in
  non local Contribution for L=           2  read in
    real space projection operators read in
  non local Contribution for L=           0  read in
    real space projection operators read in
  non local Contribution for L=           0  read in
    real space projection operators read in
  non local Contribution for L=           1  read in
    real space projection operators read in
    PAW grid and wavefunctions read in
 
   number of l-projection  operators is LMAX  =           5
   number of lm-projection operators is LMMAX =          15
 
 POTCAR:   PAW_PBE Zr 08Apr2002                   
   VRHFIN =Zr: 5s4d5p                                                           
   LEXCH  = PE                                                                  
   EATOM  =    77.8472 eV,    5.7216 Ry                                         
                                                                                
   TITEL  = PAW_PBE Zr 08Apr2002                                                
   LULTRA =        F    use ultrasoft PP ?                                      
   IUNSCR =        1    unscreen: 0-lin 1-nonlin 2-no                           
   RPACOR =    2.200    partial core radius                                     
   POMASS =   91.224; ZVAL   =    4.000    mass and valenz                      
   RCORE  =    3.000    outmost cutoff radius                                   
   RWIGS  =    3.070; RWIGS  =    1.625    wigner-seitz radius (au A)           
   ENMAX  =  154.632; ENMIN  =  115.974 eV                                      
   RCLOC  =    2.213    cutoff for local pot                                    
   LCOR   =        T    correct aug charges                                     
   LPAW   =        T    paw PP                                                  
   EAUG   =  243.217                                                            
   DEXC   =    -.082                                                            
   RMAX   =    3.708    core radius for proj-oper                               
   RAUG   =    1.300    factor for augmentation sphere                          
   RDEP   =    3.146    radius for radial grids                                 
   QCUT   =   -3.371; QGAM   =    6.742    optimization parameters              
                                                                                
   Description                                                                  
     l     E      TYP  RCUT    TYP  RCUT                                        
     2   .000     23  3.000                                                     
     2   .000     23  3.000                                                     
     0   .000     23  3.000                                                     
     0  2.000     23  3.000                                                     
     1  -.400     23  3.000                                                     
     3   .000      7   .000                                                     
  local pseudopotential read in
  partial core-charges read in
  atomic valenz-charges read in
  non local Contribution for L=           2  read in
    real space projection operators read in
  non local Contribution for L=           2  read in
    real space projection operators read in
  non local Contribution for L=           0  read in
    real space projection operators read in
  non local Contribution for L=           0  read in
    real space projection operators read in
  non local Contribution for L=           1  read in
    real space projection operators read in
    PAW grid and wavefunctions read in
 
   number of l-projection  operators is LMAX  =           5
   number of lm-projection operators is LMMAX =          15
 
 POTCAR:    PAW_PBE O 08Apr2002                   
   VRHFIN =O: s2p4                                                              
   LEXCH  = PE                                                                  
   EATOM  =   432.3788 eV,   31.7789 Ry                                         
                                                                                
   TITEL  = PAW_PBE O 08Apr2002                                                 
   LULTRA =        F    use ultrasoft PP ?                                      
   IUNSCR =        1    unscreen: 0-lin 1-nonlin 2-no                           
   RPACOR =    1.200    partial core radius                                     
   POMASS =   16.000; ZVAL   =    6.000    mass and valenz                      
   RCORE  =    1.520    outmost cutoff radius                                   
   RWIGS  =    1.550; RWIGS  =    0.820    wigner-seitz radius (au A)           
   ENMAX  =  400.000; ENMIN  =  300.000 eV                                      
   ICORE  =        2    local potential                                         
   LCOR   =        T    correct aug charges                                     
   LPAW   =        T    paw PP                                                  
   EAUG   =  605.392                                                            
   DEXC   =    0.000                                                            
   RMAX   =    1.553    core radius for proj-oper                               
   RAUG   =    1.300    factor for augmentation sphere                          
   RDEP   =    1.550    radius for radial grids                                 
   RDEPT  =    1.329    core radius for aug-charge                              
                                                                                
   Atomic configuration                                                         
    4 entries                                                                   
     n  l   j            E        occ.                                          
     1  0  0.50      -514.6923   2.0000                                         
     2  0  0.50       -23.9615   2.0000                                         
     2  1  0.50        -9.0305   4.0000                                         
     3  2  1.50        -9.5241   0.0000                                         
   Description                                                                  
     l       E           TYP  RCUT    TYP  RCUT                                 
     0    -23.9615318     23  1.200                                             
     0     -9.5240782     23  1.200                                             
     1     -9.0304911     23  1.520                                             
     1      8.1634956     23  1.520                                             
     2     -9.5240782      7  1.500                                             
  local pseudopotential read in
  partial core-charges read in
  partial kinetic energy density read in
  kinetic energy density of atom read in
  atomic valenz-charges read in
  non local Contribution for L=           0  read in
    real space projection operators read in
  non local Contribution for L=           0  read in
    real space projection operators read in
  non local Contribution for L=           1  read in
    real space projection operators read in
  non local Contribution for L=           1  read in
    real space projection operators read in
    PAW grid and wavefunctions read in
 
   number of l-projection  operators is LMAX  =           4
   number of lm-projection operators is LMMAX =           8
 
 Optimization of the real space projectors (new method)

 maximal supplied QI-value         = 19.84
 optimisation between [QCUT,QGAM] = [ 12.50, 25.00] = [ 43.76,175.03] Ry 
 Optimized for a Real-space Cutoff    1.06 Angstroem

   l    n(q)    QCUT    max X(q) W(low)/X(q) W(high)/X(q)  e(spline) 
   0      8    12.501   176.870    0.16E-03    0.12E-03    0.66E-07
   0      8    12.501   105.762    0.15E-03    0.12E-03    0.64E-07
   1      7    12.501    55.370    0.36E-03    0.38E-03    0.67E-07
   1      7    12.501    20.208    0.32E-03    0.35E-03    0.64E-07
 Optimization of the real space projectors (new method)

 maximal supplied QI-value         = 15.68
 optimisation between [QCUT,QGAM] = [ 12.55, 25.10] = [ 44.09,176.36] Ry 
 Optimized for a Real-space Cutoff    1.56 Angstroem

   l    n(q)    QCUT    max X(q) W(low)/X(q) W(high)/X(q)  e(spline) 
   0     12    12.548    10.201    0.21E-04    0.36E-05    0.83E-07
   0     12    12.548     8.174    0.31E-04    0.62E-05    0.15E-06
   1     11    12.548     3.488    0.79E-05    0.23E-04    0.21E-06
   1     11    12.548     4.917    0.56E-04    0.13E-03    0.11E-05
   2     11    12.548   153.744    0.25E-03    0.10E-03    0.15E-05
   2     11    12.548   126.342    0.25E-03    0.10E-03    0.15E-05
 Optimization of the real space projectors (new method)

 maximal supplied QI-value         = 12.85
 optimisation between [QCUT,QGAM] = [ 12.46, 25.06] = [ 43.51,175.83] Ry 
 Optimized for a Real-space Cutoff    1.56 Angstroem

   l    n(q)    QCUT    max X(q) W(low)/X(q) W(high)/X(q)  e(spline) 
   2     11    12.465    62.315    0.36E-03    0.20E-03    0.15E-05
   2     11    12.465    52.185    0.36E-03    0.20E-03    0.15E-05
   0     12    12.465   103.837    0.22E-04    0.37E-05    0.56E-06
   0     12    12.465    59.728    0.20E-04    0.34E-05    0.51E-06
   1     11    12.465    13.958    0.44E-03    0.81E-03    0.81E-05
   1     11    12.465     8.441    0.31E-03    0.56E-03    0.56E-05
 Optimization of the real space projectors (new method)

 maximal supplied QI-value         = 13.42
 optimisation between [QCUT,QGAM] = [ 12.48, 25.09] = [ 43.60,176.28] Ry 
 Optimized for a Real-space Cutoff    1.56 Angstroem

   l    n(q)    QCUT    max X(q) W(low)/X(q) W(high)/X(q)  e(spline) 
   2     11    12.478    49.363    0.45E-03    0.34E-03    0.89E-06
   2     11    12.478    47.669    0.44E-03    0.33E-03    0.87E-06
   0     12    12.478    26.374    0.17E-03    0.37E-04    0.21E-05
   0     12    12.478    11.549    0.13E-03    0.31E-04    0.17E-05
   1     11    12.478     9.492    0.91E-05    0.64E-04    0.34E-06
 Optimization of the real space projectors (new method)

 maximal supplied QI-value         = 12.47
 optimisation between [QCUT,QGAM] = [ 12.47, 25.07] = [ 43.56,175.99] Ry 
 Optimized for a Real-space Cutoff    1.70 Angstroem

   l    n(q)    QCUT    max X(q) W(low)/X(q) W(high)/X(q)  e(spline) 
   2     12    12.472     5.149    0.23E-04    0.12E-05    0.19E-06
   2     12    12.472    48.417    0.26E-03    0.15E-03    0.35E-05
   0     13    12.472    27.113    0.15E-04    0.46E-05    0.14E-06
   0     13    12.472    33.957    0.20E-04    0.33E-04    0.12E-05
   1     12    12.472    13.771    0.11E-04    0.23E-05    0.34E-06
 WARNING: PSMAXN for non-local potential too small
          PSMAXN should be >   12.5490833729506       NTYP=           5
 Optimization of the real space projectors (new method)

 maximal supplied QI-value         = 24.76
 optimisation between [QCUT,QGAM] = [ 12.38, 25.00] = [ 42.90,175.06] Ry 
 Optimized for a Real-space Cutoff    1.13 Angstroem

   l    n(q)    QCUT    max X(q) W(low)/X(q) W(high)/X(q)  e(spline) 
   0      8    12.378    20.381    0.16E-03    0.54E-05    0.27E-06
   0      8    12.378    15.268    0.17E-03    0.61E-05    0.29E-06
   1      8    12.378     5.964    0.38E-03    0.23E-03    0.28E-06
   1      8    12.378     5.382    0.33E-03    0.20E-03    0.25E-06
  PAW_PBE Al 04Jan2001                  :
 energy of atom  1       EATOM=  -53.5387
 kinetic energy error for atom=    0.0002 (will be added to EATOM!!)
  PAW_PBE Nb_sv 25May2007               :
 energy of atom  2       EATOM=-1555.1913
 kinetic energy error for atom=    0.0037 (will be added to EATOM!!)
  PAW_PBE Ta 17Jan2003                  :
 energy of atom  3       EATOM= -130.6506
 kinetic energy error for atom=    0.0004 (will be added to EATOM!!)
  PAW_PBE Ti 08Apr2002                  :
 energy of atom  4       EATOM=  -94.7928
 kinetic energy error for atom=    0.0001 (will be added to EATOM!!)
 PAW_PBE Zr 08Apr2002                   :
 energy of atom  5       EATOM=  -77.8472
 kinetic energy error for atom=    0.0001 (will be added to EATOM!!)
  PAW_PBE O 08Apr2002                   :
 energy of atom  6       EATOM= -432.3788
 kinetic energy error for atom=    0.0168 (will be added to EATOM!!)
 
 
 POSCAR: Al Nb Ta Ti Zr                          
  positions in direct lattice
  velocities in cartesian coordinates
 exchange correlation table for  LEXCH =        8
   RHO(1)=    0.500       N(1)  =     2000
   RHO(2)=  100.500       N(2)  =     4000
 


--------------------------------------------------------------------------------------------------------


 ion  position               nearest neighbor table
   1  0.623  0.867  0.376-  34 2.83  25 2.88  24 2.88   9 2.88  13 2.90   4 2.91  61 2.93  15 3.16
                            41 3.35  17 3.40
   2  0.616  0.397  0.547-  31 2.76  33 2.82  23 2.83  14 2.92  10 2.92   7 2.95  26 3.01  62 3.01
                             3 3.05  16 3.14  17 3.16  42 3.49
   3  0.586  0.622  0.623-  79 1.83  75 1.84  78 1.90  32 2.63  33 2.73  26 2.82   8 2.82  45 2.92
                            23 3.00   2 3.05  14 3.11
   4  0.618  0.084  0.450-  31 2.80  24 2.86  34 2.87  13 2.88   1 2.91  25 2.92   7 2.92  62 2.97
                            10 3.06  28 3.16  46 3.24
   5  0.980  0.635  0.549-  27 2.78  30 2.81  56 2.93  42 2.95  63 2.97  47 3.01  52 3.04  59 3.20
                            57 3.27  54 3.33  58 3.55
   6  0.980  0.121  0.378-  29 2.80  28 2.80  53 2.91  41 2.96  51 3.05  55 3.05  60 3.08  57 3.37

   7  0.729  0.343  0.458-  28 2.77  29 2.83  31 2.85  17 2.89  11 2.90   4 2.92   2 2.95  62 3.05
                            63 3.07  42 3.14
   8  0.722  0.842  0.632-  78 2.02  71 2.04  77 2.07  79 2.15  27 2.70  32 2.80   3 2.82  30 2.86
                            12 2.89  18 2.92  23 3.11  64 3.20
   9  0.517  0.608  0.367-  35 2.84  15 2.85  17 2.87   1 2.88  11 2.89  61 2.95  43 3.10
  10  0.510  0.131  0.545-  16 2.83  36 2.90  18 2.91   2 2.92  12 2.95  46 3.03  62 3.03   4 3.06
                            31 3.06  44 3.12
  11  0.618  0.343  0.369-  24 2.75  34 2.83  31 2.87   9 2.89   7 2.90  61 2.96  43 3.27
  12  0.621  0.868  0.541-  13 2.76  23 2.80  32 2.80  33 2.86  25 2.89   8 2.89  62 2.92  10 2.95
                            44 3.42
  13  0.742  0.843  0.462-  12 2.76  17 2.87   4 2.88   1 2.90  28 2.94  63 2.98  30 3.02  41 3.05
                            23 3.11  57 3.27
  14  0.739  0.386  0.633-  74 2.01  76 2.01  79 2.25   2 2.92  42 2.95  18 3.01  27 3.02  64 3.06
                             3 3.11  58 3.13
  15  0.394  0.847  0.369-  22 2.68  19 2.76  25 2.83  34 2.84   9 2.85  39 2.98   1 3.16  46 3.43

  16  0.389  0.370  0.547-  21 2.63  20 2.80  10 2.83  26 2.89  33 2.90  40 2.92  37 2.94  31 3.01
                             2 3.14  45 3.45
  17  0.619  0.602  0.458-  33 2.79  25 2.81  31 2.85   9 2.87  13 2.87   7 2.89  61 2.95  23 3.00
                            35 3.03   2 3.16   1 3.40  63 3.44
  18  0.628  0.116  0.632-  71 2.04  72 2.04  74 2.06  32 2.69  10 2.91  62 2.92   8 2.92  26 2.98
                            14 3.01  64 3.16  36 3.18
  19  0.279  0.834  0.451-  15 2.76  44 2.92  35 2.94  46 2.96  39 2.97  25 2.99  60 3.07  51 3.08
                            47 3.12  56 3.26  21 3.31
  20  0.271  0.345  0.629-  69 1.99  70 2.04  67 2.17  16 2.80  36 2.95  48 3.04  52 3.06  40 3.06
                            59 3.08  26 3.09  45 3.18
  21  0.274  0.587  0.535-  16 2.63  35 2.89  37 2.89  47 2.92  52 2.96  45 2.97  33 3.05  44 3.05
                            56 3.12  59 3.26  19 3.31
  22  0.283  0.077  0.361-  15 2.68  46 2.97  43 2.97  34 2.99  51 3.02  55 3.10  60 3.10
  23  0.740  0.632  0.547-  79 2.17  12 2.80  30 2.80   2 2.83  27 2.88   3 3.00  17 3.00  42 3.04
                            63 3.06  13 3.11   8 3.11
  24  0.740  0.115  0.366-  29 2.73  11 2.75  28 2.85   4 2.86   1 2.88  41 3.00
  25  0.496  0.836  0.458-  35 2.78  17 2.81  15 2.83   1 2.88  12 2.89  33 2.91   4 2.92  44 2.96
                            19 2.99  46 2.99
  26  0.495  0.362  0.637-  75 1.90  70 1.90  74 1.96   3 2.82  36 2.87  16 2.89  18 2.98   2 3.01
                            20 3.09  45 3.17
  27  0.864  0.646  0.631-  79 2.02  76 2.02  68 2.03  77 2.13   8 2.70  58 2.72   5 2.78  23 2.88
                            54 2.98  30 3.01  14 3.02  42 3.50
  28  0.847  0.110  0.455-   7 2.77   6 2.80  24 2.85  62 2.87  57 2.90  13 2.94  53 2.98  50 3.04
                            29 3.15   4 3.16  41 3.36
  29  0.852  0.349  0.376-  24 2.73   6 2.80   7 2.83  53 2.94  61 2.98  49 3.07  28 3.15  63 3.25

  30  0.858  0.870  0.555-  77 2.17  23 2.80   5 2.81   8 2.86  50 2.98  57 2.98  27 3.01  13 3.02
                            62 3.06  64 3.25  54 3.30
  31  0.522  0.339  0.461-   2 2.76   4 2.80  17 2.85   7 2.85  35 2.86  11 2.87  46 2.95  16 3.01
                            10 3.06  43 3.11
  32  0.520  0.881  0.629-  78 1.88  72 2.01  65 2.03   3 2.63  36 2.67  18 2.69  12 2.80   8 2.80
                            45 3.03  44 3.09
  33  0.494  0.631  0.536-  35 2.72   3 2.73  17 2.79   2 2.82  44 2.85  12 2.86  16 2.90  25 2.91
                            45 3.03  21 3.05
  34  0.499  0.102  0.365-  11 2.83   1 2.83  15 2.84   4 2.87  43 2.91  46 2.98  22 2.99
  35  0.400  0.580  0.451-  33 2.72  25 2.78   9 2.84  31 2.86  37 2.88  21 2.89  39 2.93  19 2.94
                            17 3.03  43 3.08
  36  0.397  0.097  0.633-  72 1.94  70 2.01  67 2.04  65 2.15  32 2.67  26 2.87  10 2.90  38 2.95
                            20 2.95  40 3.12  18 3.18  44 3.27
  37  0.255  0.366  0.464-  35 2.88  21 2.89  16 2.94  47 3.02  60 3.04  43 3.05  55 3.08  46 3.08
                            52 3.09  40 3.17  39 3.39
  38  0.228  0.909  0.634-  73 1.87  65 2.03  67 2.05  56 2.85  54 2.87  36 2.95  48 2.97  59 3.13
                            44 3.20  45 3.25  40 3.27
  39  0.252  0.614  0.376-  35 2.93  19 2.97  15 2.98  47 3.07  43 3.07  51 3.07  55 3.08  37 3.39
                            49 3.53
  40  0.254  0.135  0.546-  67 2.37  16 2.92  44 3.00  60 3.05  20 3.06  52 3.07  46 3.09  36 3.12
                            37 3.17  48 3.19  56 3.22  38 3.27  50 3.61
  41  0.865  0.859  0.370-   6 2.96  24 3.00  61 3.05  13 3.05  57 3.06  49 3.12   1 3.35  28 3.36
                            51 3.49  63 3.53
  42  0.868  0.372  0.547-  14 2.95   5 2.95  62 3.00  23 3.04  50 3.08   7 3.14  58 3.16  53 3.20
                            63 3.24  52 3.41   2 3.49  64 3.50  27 3.50
  43  0.381  0.352  0.373-  34 2.91  22 2.97  37 3.05  39 3.07  35 3.08   9 3.10  31 3.11  55 3.26
                            11 3.27  46 3.29
  44  0.373  0.872  0.545-  65 2.33  33 2.85  19 2.92  25 2.96  40 3.00  21 3.05  32 3.09  10 3.12
                            45 3.18  38 3.20  36 3.27  56 3.28  46 3.31  12 3.42
  45  0.374  0.643  0.628-  69 2.11  75 2.14  65 2.22   3 2.92  21 2.97  33 3.03  32 3.03  26 3.17
                            44 3.18  20 3.18  59 3.23  38 3.25  16 3.45
  46  0.384  0.104  0.456-  31 2.95  19 2.96  22 2.97  34 2.98  25 2.99  10 3.03  37 3.08  40 3.09
                             4 3.24  60 3.27  43 3.29  44 3.31  15 3.43
  47  0.117  0.611  0.465-  21 2.92   5 3.01  37 3.02  39 3.07  19 3.12  53 3.14  49 3.15  56 3.15
                            57 3.17  52 3.23  63 3.42  51 3.52  55 3.80
  48  0.095  0.153  0.630-  66 2.10  67 2.16  50 2.95  38 2.97  20 3.04  54 3.04  58 3.09  52 3.12
                            40 3.19  64 3.31  56 3.83
  49  0.996  0.593  0.368-  63 3.05  29 3.07  41 3.12  47 3.15  51 3.16  55 3.23  53 3.44  39 3.53
                            61 3.65  57 3.82
  50  0.993  0.107  0.537-  48 2.95  30 2.98  57 2.98  28 3.04  42 3.08  53 3.16  52 3.17  56 3.20
                            60 3.20  64 3.34  40 3.61  62 3.63  54 3.77
  51  0.119  0.872  0.375-  60 3.00  22 3.02   6 3.05  39 3.07  19 3.08  57 3.16  49 3.16  41 3.49
                            47 3.52
  52  0.115  0.385  0.551-  21 2.96   5 3.04  20 3.06  40 3.07  37 3.09  59 3.10  48 3.12  50 3.17
                            53 3.19  47 3.23  42 3.41  58 3.46
  53  1.000  0.331  0.453-   6 2.91  29 2.94  28 2.98  60 3.06  63 3.08  55 3.09  47 3.14  50 3.16
                            52 3.19  42 3.20  49 3.44
  54  0.024  0.854  0.640-  77 2.11  73 2.16  68 2.23  38 2.87  59 2.87  27 2.98  48 3.04  56 3.07
                            30 3.30   5 3.33  64 3.39  50 3.77
  55  0.145  0.332  0.368-   6 3.05  37 3.08  39 3.08  53 3.09  22 3.10  49 3.23  60 3.24  43 3.26
                            47 3.80
  56  0.136  0.844  0.545-  38 2.85   5 2.93  54 3.07  57 3.09  21 3.12  47 3.15  50 3.20  40 3.22
                            19 3.26  44 3.28  59 3.32  60 3.52  48 3.83
  57  0.979  0.876  0.465-  28 2.90  50 2.98  30 2.98  41 3.06  56 3.09  63 3.11  60 3.13  51 3.16
                            47 3.17   5 3.27  13 3.27   6 3.37  49 3.82
  58  0.964  0.408  0.651-  66 2.06  76 2.08  68 2.23  27 2.72  48 3.09  14 3.13  59 3.14  42 3.16
                            64 3.20  52 3.46   5 3.55
  59  0.141  0.607  0.632-  69 2.12  68 2.18  73 2.19  54 2.87  20 3.08  52 3.10  38 3.13  58 3.14
                             5 3.20  45 3.23  21 3.26  56 3.32
  60  0.147  0.092  0.451-  51 3.00  37 3.04  40 3.05  53 3.06  19 3.07   6 3.08  22 3.10  57 3.13
                            50 3.20  55 3.24  46 3.27  56 3.52
  61  0.731  0.606  0.367-   1 2.93  17 2.95   9 2.95  11 2.96  29 2.98  41 3.05  63 3.17  49 3.65

  62  0.730  0.130  0.540-  28 2.87  18 2.92  12 2.92   4 2.97  42 3.00   2 3.01  10 3.03   7 3.05
                            30 3.06  64 3.19  50 3.63
  63  0.869  0.592  0.458-   5 2.97  13 2.98  49 3.05  23 3.06   7 3.07  53 3.08  57 3.11  61 3.17
                            42 3.24  29 3.25  47 3.42  17 3.44  41 3.53
  64  0.857  0.114  0.637-  71 2.13  66 2.14  77 2.35  14 3.06  18 3.16  62 3.19  58 3.20   8 3.20
                            30 3.25  48 3.31  50 3.34  54 3.39  42 3.50
  65  0.373  0.875  0.629-  38 2.03  32 2.03  36 2.15  45 2.22  44 2.33
  66  0.977  0.204  0.674-  58 2.06  48 2.10  64 2.14
  67  0.250  0.120  0.632-  36 2.04  38 2.05  48 2.16  20 2.17  40 2.37
  68  0.996  0.633  0.663-  27 2.03  59 2.18  58 2.23  54 2.23
  69  0.268  0.526  0.665-  20 1.99  45 2.11  59 2.12
  70  0.387  0.279  0.669-  26 1.90  36 2.01  20 2.04
  71  0.734  0.021  0.671-   8 2.04  18 2.04  64 2.13
  72  0.510  0.051  0.671-  36 1.94  32 2.01  18 2.04
  73  0.157  0.795  0.676-  38 1.87  54 2.16  59 2.19
  74  0.620  0.310  0.665-  26 1.96  14 2.01  18 2.06
  75  0.494  0.545  0.663-   3 1.84  26 1.90  45 2.14
  76  0.833  0.486  0.676-  14 2.01  27 2.02  58 2.08
  77  0.871  0.869  0.633-   8 2.07  54 2.11  27 2.13  30 2.17  64 2.35
  78  0.603  0.772  0.668-  32 1.88   3 1.90   8 2.02
  79  0.719  0.619  0.625-   3 1.83  27 2.02   8 2.15  23 2.17  14 2.25
 
  LATTYP: Found a simple orthorhombic cell.
 ALAT       =     9.5644817352
 B/A-ratio  =     1.4398428730
 C/A-ratio  =     2.8922184390
  
  Lattice vectors:
  
 A1 = (   0.0000000000,  -9.5644817352,   0.0000000000)
 A2 = ( -13.7713508606,   0.0000000000,   0.0000000000)
 A3 = (   0.0000000000,   0.0000000000, -27.6625704340)


Analysis of symmetry for initial positions (statically):
=====================================================================
 Subroutine PRICEL returns:
 Original cell was already a primitive cell.
 

 Routine SETGRP: Setting up the symmetry group for a 
 simple orthorhombic supercell.


 Subroutine GETGRP returns: Found  1 space group operations
 (whereof  1 operations were pure point group operations)
 out of a pool of  8 trial point group operations.


The static configuration has the point symmetry C_1 .


Analysis of symmetry for dynamics (positions and initial velocities):
=====================================================================
 Subroutine PRICEL returns:
 Original cell was already a primitive cell.
 

 Routine SETGRP: Setting up the symmetry group for a 
 simple orthorhombic supercell.


 Subroutine GETGRP returns: Found  1 space group operations
 (whereof  1 operations were pure point group operations)
 out of a pool of  8 trial point group operations.


The dynamic configuration has the point symmetry C_1 .


Analysis of constrained symmetry for selective dynamics:
=====================================================================
 Subroutine PRICEL returns:
 Original cell was already a primitive cell.
 

 Routine SETGRP: Setting up the symmetry group for a 
 simple orthorhombic supercell.


 Subroutine GETGRP returns: Found  1 space group operations
 (whereof  1 operations were pure point group operations)
 out of a pool of  8 trial point group operations.


The constrained configuration has the point symmetry C_1 .


 Subroutine INISYM returns: Found  1 space group operations
 (whereof  1 operations are pure point group operations),
 and found     1 'primitive' translations

 
 
 KPOINTS: k-points                                

Automatic generation of k-mesh.
Space group operators:
 irot       det(A)        alpha          n_x          n_y          n_z        tau_x        tau_y        tau_z
    1     1.000000     0.000000     1.000000     0.000000     0.000000     0.000000     0.000000     0.000000
 
 Subroutine IBZKPT returns following result:
 ===========================================
 
 Found      5 irreducible k-points:
 
 Following reciprocal coordinates:
            Coordinates               Weight
  0.000000  0.000000  0.000000      1.000000
  0.333333  0.000000  0.000000      2.000000
  0.000000  0.333333  0.000000      2.000000
  0.333333  0.333333  0.000000      2.000000
 -0.333333  0.333333  0.000000      2.000000
 
 Following cartesian coordinates:
            Coordinates               Weight
  0.000000  0.000000  0.000000      1.000000
  0.024205  0.000000  0.000000      2.000000
  0.000000  0.034851  0.000000      2.000000
  0.024205  0.034851  0.000000      2.000000
 -0.024205  0.034851  0.000000      2.000000
 


--------------------------------------------------------------------------------------------------------




 Dimension of arrays:
   k-points           NKPTS =      5   k-points in BZ     NKDIM =      5   number of bands    NBANDS=    260
   number of dos      NEDOS =    301   number of ions     NIONS =     79
   non local maximal  LDIM  =      6   non local SUM 2l+1 LMDIM =     18
   total plane-waves  NPLWV = 846720
   max r-space proj   IRMAX =   4874   max aug-charges    IRDMAX=  25433
   dimension x,y,z NGX =    84 NGY =   60 NGZ =  168
   dimension x,y,z NGXF=   168 NGYF=  120 NGZF=  336
   support grid    NGXF=   168 NGYF=  120 NGZF=  336
   ions per type =               6  10   4  18  26  15
 NGX,Y,Z   is equivalent  to a cutoff of  10.14, 10.43, 10.10 a.u.
 NGXF,Y,Z  is equivalent  to a cutoff of  20.28, 20.86, 20.19 a.u.


 I would recommend the setting:
   dimension x,y,z NGX =    83 NGY =   57 NGZ =  166
 SYSTEM =  (110) surface                           
 POSCAR =  Al Nb Ta Ti Zr                          

 Startparameter for this run:
   NWRITE =      2    write-flag & timer
   PREC   = normal    normal or accurate (medium, high low for compatibility)
   ISTART =      0    job   : 0-new  1-cont  2-samecut
   ICHARG =      2    charge: 1-file 2-atom 10-const
   ISPIN  =      1    spin polarized calculation?
   LNONCOLLINEAR =      F non collinear calculations
   LSORBIT =      F    spin-orbit coupling
   INIWAV =      1    electr: 0-lowe 1-rand  2-diag
   LASPH  =      F    aspherical Exc in radial PAW
   METAGGA=      F    non-selfconsistent MetaGGA calc.

 Electronic Relaxation 1
   ENCUT  =  600.0 eV  44.10 Ry    6.64 a.u.  27.50 19.10 55.25*2*pi/ulx,y,z
   ENINI  =  600.0     initial cutoff
   ENAUG  =  605.4 eV  augmentation charge cutoff
   NELM   =     60;   NELMIN=  2; NELMDL= -5     # of ELM steps 
   EDIFF  = 0.1E-03   stopping-criterion for ELM
   LREAL  =      T    real-space projection
   NLSPLINE    = F    spline interpolate recip. space projectors
   LCOMPAT=      F    compatible to vasp.4.4
   GGA_COMPAT  = T    GGA compatible to vasp.4.4-vasp.4.6
   LMAXPAW     = -100 max onsite density
   LMAXMIX     =    2 max onsite mixed and CHGCAR
   VOSKOWN=      0    Vosko Wilk Nusair interpolation
   ROPT   =   -0.00050  -0.00050  -0.00050  -0.00050
   ROPT   =   -0.00050  -0.00050
 Ionic relaxation
   EDIFFG = -.1E-01   stopping-criterion for IOM
   NSW    =      0    number of steps for IOM
   NBLOCK =      1;   KBLOCK =      1    inner block; outer block 
   IBRION =     -1    ionic relax: 0-MD 1-quasi-New 2-CG
   NFREE  =      0    steps in history (QN), initial steepest desc. (CG)
   ISIF   =      2    stress and relaxation
   IWAVPR =     10    prediction:  0-non 1-charg 2-wave 3-comb
   ISYM   =      2    0-nonsym 1-usesym 2-fastsym
   LCORR  =      T    Harris-Foulkes like correction to forces

   POTIM  = 0.1000    time-step for ionic-motion
   TEIN   =    0.0    initial temperature
   TEBEG  =    0.0;   TEEND  =   0.0 temperature during run
   SMASS  =  -3.00    Nose mass-parameter (am)
   estimated Nose-frequenzy (Omega)   =  0.10E-29 period in steps =****** mass=  -0.433E-26a.u.
   SCALEE = 1.0000    scale energy and forces
   NPACO  =    256;   APACO  = 16.0  distance and # of slots for P.C.
   PSTRESS=    0.0 pullay stress

  Mass of Ions in am
   POMASS =  26.98 92.91180.95 47.88 91.22 16.00
  Ionic Valenz
   ZVAL   =   3.00 13.00  5.00  4.00  4.00  6.00
  Atomic Wigner-Seitz radii
   RWIGS  =  -1.00 -1.00 -1.00 -1.00 -1.00 -1.00
  virtual crystal weights 
   VCA    =   1.00  1.00  1.00  1.00  1.00  1.00
   NELECT =     434.0000    total number of electrons
   NUPDOWN=      -1.0000    fix difference up-down

 DOS related values:
   EMIN   =  10.00;   EMAX   =-10.00  energy-range for DOS
   EFERMI =   0.00
   ISMEAR =     2;   SIGMA  =   0.10  broadening in eV -4-tet -1-fermi 0-gaus

 Electronic relaxation 2 (details)
   IALGO  =     68    algorithm
   LDIAG  =      T    sub-space diagonalisation (order eigenvalues)
   LSUBROT=      F    optimize rotation matrix (better conditioning)
   TURBO    =      0    0=normal 1=particle mesh
   IRESTART =      0    0=no restart 2=restart with 2 vectors
   NREBOOT  =      0    no. of reboots
   NMIN     =      0    reboot dimension
   EREF     =   0.00    reference energy to select bands
   IMIX   =      4    mixing-type and parameters
     AMIX     =   0.40;   BMIX     =  1.00
     AMIX_MAG =   1.60;   BMIX_MAG =  1.00
     AMIN     =   0.10
     WC   =   100.;   INIMIX=   1;  MIXPRE=   1;  MAXMIX= -45

 Intra band minimization:
   WEIMIN = 0.0000     energy-eigenvalue tresh-hold
   EBREAK =  0.96E-07  absolut break condition
   DEPER  =   0.30     relativ break condition  

   TIME   =   0.40     timestep for ELM

  volume/ion in A,a.u.               =      46.12       311.24
  Fermi-wavevector in a.u.,A,eV,Ry     =   0.805492  1.522159  8.827696  0.648817
  Thomas-Fermi vector in A             =   1.913747
 
 Write flags
   LWAVE  =      F    write WAVECAR
   LCHARG =      F    write CHGCAR
   LVTOT  =      F    write LOCPOT, total local potential
   LVHAR  =      T    write LOCPOT, Hartree potential only
   LELF   =      F    write electronic localiz. function (ELF)
   LORBIT =     11    0 simple, 1 ext, 2 COOP (PROOUT)


 Dipole corrections
   LMONO  =      F    monopole corrections only (constant potential shift)
   LDIPOL =      F    correct potential (dipole corrections)
   IDIPOL =      0    1-x, 2-y, 3-z, 4-all directions 
   EPSILON=  1.0000000 bulk dielectric constant

 Exchange correlation treatment:
   GGA     =    --    GGA type
   LEXCH   =     8    internal setting for exchange type
   VOSKOWN=      0    Vosko Wilk Nusair interpolation
   LHFCALC =     F    Hartree Fock is set to
   LHFONE  =     F    Hartree Fock one center treatment
   AEXX    =    0.0000 exact exchange contribution

 Linear response parameters
   LEPSILON=     F    determine dielectric tensor
   LRPA    =     F    only Hartree local field effects (RPA)
   LNABLA  =     F    use nabla operator in PAW spheres
   LVEL    =     F    velocity operator in full k-point grid
   LINTERFAST=   F  fast interpolation
   KINTER  =     0    interpolate to denser k-point grid
   CSHIFT  =0.1000    complex shift for real part using Kramers Kronig
   OMEGAMAX=  -1.0    maximum frequency
   DEG_THRESHOLD= 0.2000000E-02 threshold for treating states as degnerate
   RTIME   =    0.100 relaxation time in fs

 Orbital magnetization related:
   ORBITALMAG=     F  switch on orbital magnetization
   LCHIMAG   =     F  perturbation theory with respect to B field
   DQ        =  0.001000  dq finite difference perturbation B field



--------------------------------------------------------------------------------------------------------


 Static calculation
 charge density and potential will be updated during run
 non-spin polarized calculation
 RMM-DIIS sequential band-by-band and
  variant of blocked Davidson during initial phase
 perform sub-space diagonalisation
    before iterative eigenvector-optimisation
 modified Broyden-mixing scheme, WC =      100.0
 initial mixing is a Kerker type mixing with AMIX =  0.4000 and BMIX =      1.0000
 Hartree-type preconditioning will be used
 using additional bands           43
 real space projection scheme for non local part
 use partial core corrections
 calculate Harris-corrections to forces 
   (improved forces if not selfconsistent)
 use gradient corrections 
 use of overlap-Matrix (Vanderbilt PP)
 Methfessel and Paxton  Order N= 2 SIGMA  =   0.10


--------------------------------------------------------------------------------------------------------


  energy-cutoff  :      600.00
  volume of cell :     3643.60
      direct lattice vectors                 reciprocal lattice vectors
    13.771350861  0.000000000  0.000000000     0.072614518  0.000000000  0.000000000
     0.000000000  9.564481735  0.000000000     0.000000000  0.104553496  0.000000000
     0.000000000  0.000000000 27.662570434     0.000000000  0.000000000  0.036149931

  length of vectors
    13.771350861  9.564481735 27.662570434     0.072614518  0.104553496  0.036149931


 
 k-points in units of 2pi/SCALE and weight: k-points                                
   0.00000000  0.00000000  0.00000000       0.111
   0.02420484  0.00000000  0.00000000       0.222
   0.00000000  0.03485117  0.00000000       0.222
   0.02420484  0.03485117  0.00000000       0.222
  -0.02420484  0.03485117  0.00000000       0.222
 
 k-points in reciprocal lattice and weights: k-points                                
   0.00000000  0.00000000  0.00000000       0.111
   0.33333333  0.00000000  0.00000000       0.222
   0.00000000  0.33333333  0.00000000       0.222
   0.33333333  0.33333333  0.00000000       0.222
  -0.33333333  0.33333333  0.00000000       0.222
 
 position of ions in fractional coordinates (direct lattice) 
   0.62276447  0.86746430  0.37590333
   0.61551248  0.39658766  0.54697356
   0.58591712  0.62245209  0.62335025
   0.61839700  0.08363760  0.44965952
   0.97987177  0.63517409  0.54922571
   0.97963780  0.12056648  0.37767599
   0.72857308  0.34338307  0.45816820
   0.72183890  0.84212087  0.63222082
   0.51739597  0.60805875  0.36719826
   0.51019087  0.13119756  0.54491480
   0.61811078  0.34297293  0.36889183
   0.62101736  0.86754665  0.54093406
   0.74231148  0.84345710  0.46199300
   0.73939277  0.38603633  0.63259197
   0.39405298  0.84738672  0.36896032
   0.38860759  0.36994796  0.54669925
   0.61928761  0.60162497  0.45752798
   0.62764926  0.11580305  0.63230540
   0.27944195  0.83362269  0.45088327
   0.27092989  0.34543149  0.62899691
   0.27421794  0.58734738  0.53468746
   0.28324246  0.07725573  0.36149931
   0.74031160  0.63167075  0.54712115
   0.74002355  0.11549973  0.36646499
   0.49591756  0.83582580  0.45790018
   0.49467535  0.36160060  0.63671800
   0.86351578  0.64643453  0.63110192
   0.84724605  0.11017048  0.45460239
   0.85243583  0.34907103  0.37639265
   0.85761020  0.87043203  0.55457286
   0.52175105  0.33942658  0.46105252
   0.52019735  0.88061137  0.62881105
   0.49354468  0.63141014  0.53591681
   0.49943882  0.10200214  0.36464270
   0.40016663  0.58028412  0.45130253
   0.39743176  0.09687816  0.63262368
   0.25505811  0.36595738  0.46399110
   0.22799077  0.90886320  0.63400025
   0.25182599  0.61397660  0.37627308
   0.25409639  0.13461365  0.54623076
   0.86539888  0.85904646  0.37036829
   0.86802170  0.37185108  0.54738588
   0.38059813  0.35186696  0.37331264
   0.37304647  0.87178177  0.54463376
   0.37420053  0.64292761  0.62779363
   0.38408008  0.10357511  0.45579618
   0.11657381  0.61110574  0.46457054
   0.09504145  0.15348822  0.62977987
   0.99629861  0.59295863  0.36811234
   0.99338371  0.10714557  0.53716556
   0.11869311  0.87196302  0.37467704
   0.11544483  0.38505351  0.55120337
   0.99977952  0.33051389  0.45306987
   0.02368070  0.85386527  0.64025883
   0.14482272  0.33176249  0.36788561
   0.13558371  0.84389476  0.54452858
   0.97888047  0.87608504  0.46520830
   0.96357262  0.40768944  0.65052953
   0.14122452  0.60700404  0.63208750
   0.14721048  0.09173214  0.45072276
   0.73135245  0.60578495  0.36679988
   0.73034907  0.12961067  0.54016572
   0.86923259  0.59196168  0.45825814
   0.85658657  0.11388706  0.63672311
   0.37289517  0.87541472  0.62874344
   0.97670032  0.20403741  0.67434146
   0.25014726  0.12047523  0.63164005
   0.99647790  0.63322017  0.66260913
   0.26843928  0.52581862  0.66501946
   0.38686910  0.27895272  0.66867255
   0.73435812  0.02138799  0.67146826
   0.51035505  0.05064723  0.67118590
   0.15706670  0.79537774  0.67633031
   0.62018713  0.30950912  0.66493094
   0.49384610  0.54451138  0.66325510
   0.83287814  0.48605496  0.67630760
   0.87127603  0.86911502  0.63282476
   0.60298672  0.77191839  0.66782607
   0.71867565  0.61861186  0.62463577
 
 position of ions in cartesian coordinates  (Angst):
   8.57630799  8.29684649 10.39845223
   8.47643837  3.79315543 15.13069468
   8.06887027  5.95343160 17.24347013
   8.51616202  0.79995025 12.43873821
  13.49415793  6.07511099 15.19299484
  13.49093588  1.15315590 10.44748880
  10.03343557  3.28428114 12.67411000
   9.94069671  8.05444968 17.48885286
   7.12524148  5.81576681 10.15764776
   7.02601754  1.25483664 15.07374393
   8.51222037  3.28035836 10.20449636
   8.55224795  8.29763406 14.96362659
  10.22263181  8.06723005 12.77991378
  10.18243729  3.69223742 17.49911985
   5.42664188  8.10481479 10.20639088
   5.35165143  3.53836054 15.12310658
   8.52842696  5.75423100 12.65640004
   8.64357813  1.10759612 17.49119274
   3.84829318  7.97316903 12.47259035
   3.73107064  3.30387315 17.39967140
   3.77635146  5.61767326 14.79082957
   3.90063135  0.73891098 10.00000000
  10.19509084  6.04160337 15.13477723
  10.19112400  1.10469510 10.13736353
   6.82945470  7.99424061 12.66669595
   6.81234779  3.45852231 17.61325646
  11.89177879  6.18281126 17.45790134
  11.66772263  1.05372358 12.57547056
  11.73919286  3.33868345 10.41198829
  11.81045098  8.32523122 15.34091085
   7.18521672  3.24643930 12.75389771
   7.16382017  8.42259138 17.39453005
   6.79677699  6.03911079 14.82483658
   6.87794726  0.97559764 10.08695433
   5.51083508  5.55011685 12.48418803
   5.47317225  0.92658939 17.49999724
   3.51249472  3.50019267 12.83518635
   3.13974090  8.69280549 17.53807652
   3.46798404  5.87236796 10.40868071
   3.49925059  1.28750984 15.11014685
  11.91771166  8.21633417 10.24533883
  11.95383135  3.55656287 15.14210053
   5.24135036  3.36542512 10.32678719
   5.13735380  8.33814085 15.06596976
   5.15324684  6.14926938 17.36638560
   5.28930157  0.99064225 12.60849381
   1.60537885  5.84490969 12.85121538
   1.30884909  1.46803524 17.42132991
  13.72037774  5.67134198 10.18293350
  13.68023564  1.02479185 14.85938013
   1.63456451  8.33987442 10.36453009
   1.58983131  3.68283729 15.24770210
  13.76831459  3.16119411 12.53307716
   0.32611527  8.16677882 17.71120509
   1.99440444  3.17313630 10.17666150
   1.86717079  8.07141604 15.06306032
  13.48050634  8.37929939 12.86885734
  13.26969667  3.89933820 17.99531898
   1.94485246  5.80567902 17.48516493
   2.02728715  0.87737042 12.46815015
  10.07171117  5.79401911 10.14662739
  10.05789327  1.23965888 14.94237233
  11.97050705  5.66180669 12.67659812
  11.79635427  1.08927069 17.61339775
   5.13527020  8.37288805 17.39265960
  13.45048282  1.95151207 18.65401821
   3.44486569  1.15228315 17.47278725
  13.72284676  6.05642271 18.32947160
   3.69677144  5.02918261 18.39614754
   5.32771007  2.66803820 18.49720153
  10.11310334  0.20456504 18.57453800
   7.02827850  0.48441446 18.56672713
   2.16302063  7.60737583 18.70903480
   8.54081456  2.96029435 18.39369896
   6.80092785  5.20796912 18.34734099
  11.46985705  4.64886380 18.70840663
  11.99864793  8.31263477 17.50555939
   8.30394171  7.38299933 18.47378566
   9.89713455  5.91670182 17.27903106
 


--------------------------------------------------------------------------------------------------------


 k-point  1 :   0.0000 0.0000 0.0000  plane waves:  121663
 k-point  2 :   0.3333 0.0000 0.0000  plane waves:  121577
 k-point  3 :   0.0000 0.3333 0.0000  plane waves:  121622
 k-point  4 :   0.3333 0.3333 0.0000  plane waves:  121647
 k-point  5 :  -0.3333 0.3333 0.0000  plane waves:  121647

 maximum and minimum number of plane-waves per node :      5107     5041

 maximum number of plane-waves:    121663
 maximum index in each direction: 
   IXMAX=   27   IYMAX=   19   IZMAX=   55
   IXMIN=  -27   IYMIN=  -19   IZMIN=  -55

 WARNING: aliasing errors must be expected set NGX to 110 to avoid them
 WARNING: aliasing errors must be expected set NGY to  78 to avoid them
 WARNING: aliasing errors must be expected set NGZ to 222 to avoid them
 aliasing errors are usually negligible using standard VASP settings
 and one can safely disregard these warnings

 real space projection operators:
  total allocation   :      30601.79 KBytes
  max/ min on nodes  :       1479.59       1051.26


 parallel 3D FFT for wavefunctions:
    minimum data exchange during FFTs selected (reduces bandwidth)
 parallel 3D FFT for charge:
    minimum data exchange during FFTs selected (reduces bandwidth)


 total amount of memory used by VASP on root node    77583. kBytes
========================================================================

   base      :      30000. kBytes
   nonlr-proj:       8198. kBytes
   fftplans  :       3890. kBytes
   grid      :       8747. kBytes
   one-center:         62. kBytes
   wavefun   :      26686. kBytes
 
     INWAV:  cpu time    0.0000: real time    0.0000
 Broyden mixing: mesh for mixing (old mesh)
   NGX = 55   NGY = 39   NGZ =111
  (NGX  =168   NGY  =120   NGZ  =336)
  gives a total of 238095 points

 initial charge density was supplied:
 charge density of overlapping atoms calculated
 number of electron     434.0000000 magnetization 
 keeping initial charge density in first step


--------------------------------------------------------------------------------------------------------


 Maximum index for non-local projection operator          394
 Maximum index for augmentation-charges         1033 (set IRDMAX)


--------------------------------------------------------------------------------------------------------


 First call to EWALD:  gamma=   0.115
 Maximum number of real-space cells 3x 4x 2
 Maximum number of reciprocal cells 3x 2x 5

 FEWALD executed in parallel
    FEWALD:  cpu time    0.0022: real time    0.0022


----------------------------------------- Iteration    1(   1)  ---------------------------------------


    POTLOK:  cpu time    0.0632: real time    0.0676
    SETDIJ:  cpu time    0.0117: real time    0.0152
     EDDAV:  cpu time    5.9148: real time    5.9505
       DOS:  cpu time    0.0010: real time    0.0010
    --------------------------------------------
      LOOP:  cpu time    5.9949: real time    6.0433

 eigenvalue-minimisations  :  2720
 total energy-change (2. order) : 0.5447057E+04  (-0.1641780E+05)
 number of electron     434.0000000 magnetization 
 augmentation part      434.0000000 magnetization 

 Free energy of the ion-electron system (eV)
  ---------------------------------------------------
  alpha Z        PSCENC =       681.72839503
  Ewald energy   TEWEN  =     99520.43192329
  -Hartree energ DENC   =   -123443.60129904
  -exchange      EXHF   =         0.00000000
  -V(xc)+E(xc)   XCENC  =     -2670.06795777
  PAW double counting   =     24637.52327652   -20573.26955726
  entropy T*S    EENTRO =        -0.00421039
  eigenvalues    EBANDS =       682.88404362
  atomic energy  EATOM  =     26611.43226703
  Solvation  Ediel_sol  =         0.00000000
  ---------------------------------------------------
  free energy    TOTEN  =      5447.05688103 eV

  energy without entropy =     5447.06109142  energy(sigma->0) =     5447.05793363


--------------------------------------------------------------------------------------------------------




----------------------------------------- Iteration    1(   2)  ---------------------------------------


     EDDAV:  cpu time    5.9559: real time    5.9579
       DOS:  cpu time    0.0009: real time    0.0009
    --------------------------------------------
      LOOP:  cpu time    5.9583: real time    5.9660

 eigenvalue-minimisations  :  2780
 total energy-change (2. order) :-0.4687138E+04  (-0.4549964E+04)
 number of electron     434.0000000 magnetization 
 augmentation part      434.0000000 magnetization 

 Free energy of the ion-electron system (eV)
  ---------------------------------------------------
  alpha Z        PSCENC =       681.72839503
  Ewald energy   TEWEN  =     99520.43192329
  -Hartree energ DENC   =   -123443.60129904
  -exchange      EXHF   =         0.00000000
  -V(xc)+E(xc)   XCENC  =     -2670.06795777
  PAW double counting   =     24637.52327652   -20573.26955726
  entropy T*S    EENTRO =        -0.00250739
  eigenvalues    EBANDS =     -4004.25614837
  atomic energy  EATOM  =     26611.43226703
  Solvation  Ediel_sol  =         0.00000000
  ---------------------------------------------------
  free energy    TOTEN  =       759.91839204 eV

  energy without entropy =      759.92089943  energy(sigma->0) =      759.91901889


--------------------------------------------------------------------------------------------------------




----------------------------------------- Iteration    1(   3)  ---------------------------------------


     EDDAV:  cpu time    9.2111: real time    9.2132
       DOS:  cpu time    0.0010: real time    0.0010
    --------------------------------------------
      LOOP:  cpu time    9.2132: real time    9.2203

 eigenvalue-minimisations  :  4800
 total energy-change (2. order) :-0.1297682E+04  (-0.1256823E+04)
 number of electron     434.0000000 magnetization 
 augmentation part      434.0000000 magnetization 

 Free energy of the ion-electron system (eV)
  ---------------------------------------------------
  alpha Z        PSCENC =       681.72839503
  Ewald energy   TEWEN  =     99520.43192329
  -Hartree energ DENC   =   -123443.60129904
  -exchange      EXHF   =         0.00000000
  -V(xc)+E(xc)   XCENC  =     -2670.06795777
  PAW double counting   =     24637.52327652   -20573.26955726
  entropy T*S    EENTRO =         0.00234967
  eigenvalues    EBANDS =     -5301.94323763
  atomic energy  EATOM  =     26611.43226703
  Solvation  Ediel_sol  =         0.00000000
  ---------------------------------------------------
  free energy    TOTEN  =      -537.76384015 eV

  energy without entropy =     -537.76618983  energy(sigma->0) =     -537.76442757


--------------------------------------------------------------------------------------------------------




----------------------------------------- Iteration    1(   4)  ---------------------------------------


     EDDAV:  cpu time    7.8901: real time    7.8924
       DOS:  cpu time    0.0009: real time    0.0009
    --------------------------------------------
      LOOP:  cpu time    7.8923: real time    7.9000

 eigenvalue-minimisations  :  3976
 total energy-change (2. order) :-0.1977236E+03  (-0.1918485E+03)
 number of electron     434.0000000 magnetization 
 augmentation part      434.0000000 magnetization 

 Free energy of the ion-electron system (eV)
  ---------------------------------------------------
  alpha Z        PSCENC =       681.72839503
  Ewald energy   TEWEN  =     99520.43192329
  -Hartree energ DENC   =   -123443.60129904
  -exchange      EXHF   =         0.00000000
  -V(xc)+E(xc)   XCENC  =     -2670.06795777
  PAW double counting   =     24637.52327652   -20573.26955726
  entropy T*S    EENTRO =        -0.00270525
  eigenvalues    EBANDS =     -5499.66176525
  atomic energy  EATOM  =     26611.43226703
  Solvation  Ediel_sol  =         0.00000000
  ---------------------------------------------------
  free energy    TOTEN  =      -735.48742270 eV

  energy without entropy =     -735.48471745  energy(sigma->0) =     -735.48674639


--------------------------------------------------------------------------------------------------------




----------------------------------------- Iteration    1(   5)  ---------------------------------------


     EDDAV:  cpu time    9.3142: real time    9.3160
       DOS:  cpu time    0.0009: real time    0.0009
    CHARGE:  cpu time    0.1713: real time    0.1722
    MIXING:  cpu time    0.0048: real time    0.0059
    --------------------------------------------
      LOOP:  cpu time    9.4924: real time    9.5020

 eigenvalue-minimisations  :  4848
 total energy-change (2. order) :-0.1786793E+02  (-0.1741005E+02)
 number of electron     434.0000057 magnetization 
 augmentation part       51.9935128 magnetization 

 Broyden mixing:
  rms(total) = 0.79883E+01    rms(broyden)= 0.79882E+01
  rms(prec ) = 0.84432E+01
  weight for this iteration     100.00

 Free energy of the ion-electron system (eV)
  ---------------------------------------------------
  alpha Z        PSCENC =       681.72839503
  Ewald energy   TEWEN  =     99520.43192329
  -Hartree energ DENC   =   -123443.60129904
  -exchange      EXHF   =         0.00000000
  -V(xc)+E(xc)   XCENC  =     -2670.06795777
  PAW double counting   =     24637.52327652   -20573.26955726
  entropy T*S    EENTRO =        -0.00456789
  eigenvalues    EBANDS =     -5517.52782908
  atomic energy  EATOM  =     26611.43226703
  Solvation  Ediel_sol  =         0.00000000
  ---------------------------------------------------
  free energy    TOTEN  =      -753.35534917 eV

  energy without entropy =     -753.35078128  energy(sigma->0) =     -753.35420720


--------------------------------------------------------------------------------------------------------




----------------------------------------- Iteration    1(   6)  ---------------------------------------


    POTLOK:  cpu time    0.0497: real time    0.0497
    SETDIJ:  cpu time    0.0070: real time    0.0070
    EDDIAG:  cpu time    0.9195: real time    0.9226
  RMM-DIIS:  cpu time    4.5202: real time    4.5218
    ORTHCH:  cpu time    0.2879: real time    0.2879
       DOS:  cpu time    0.0011: real time    0.0011
    CHARGE:  cpu time    0.1672: real time    0.1673
    MIXING:  cpu time    0.0034: real time    0.0056
    --------------------------------------------
      LOOP:  cpu time    5.9576: real time    5.9699

 eigenvalue-minimisations  :  4347
 total energy-change (2. order) :-0.4264299E+02  (-0.1619492E+03)
 number of electron     434.0000041 magnetization 
 augmentation part       65.7964694 magnetization 

 Broyden mixing:
  rms(total) = 0.48160E+01    rms(broyden)= 0.48157E+01
  rms(prec ) = 0.64134E+01
  weight for this iteration     100.00

 eigenvalues of (default mixing * dielectric matrix)
  average eigenvalue GAMMA=   0.8026
  0.8026

 Free energy of the ion-electron system (eV)
  ---------------------------------------------------
  alpha Z        PSCENC =       681.72839503
  Ewald energy   TEWEN  =     99520.43192329
  -Hartree energ DENC   =   -124283.22567112
  -exchange      EXHF   =         0.00000000
  -V(xc)+E(xc)   XCENC  =     -2638.45737627
  PAW double counting   =     29185.39542045   -25130.34396320
  entropy T*S    EENTRO =         0.01356651
  eigenvalues    EBANDS =     -4742.97289840
  atomic energy  EATOM  =     26611.43226703
  Solvation  Ediel_sol  =         0.00000000
  ---------------------------------------------------
  free energy    TOTEN  =      -795.99833668 eV

  energy without entropy =     -796.01190319  energy(sigma->0) =     -796.00172831


--------------------------------------------------------------------------------------------------------




----------------------------------------- Iteration    1(   7)  ---------------------------------------


    POTLOK:  cpu time    0.0491: real time    0.0491
    SETDIJ:  cpu time    0.0068: real time    0.0068
    EDDIAG:  cpu time    0.9098: real time    0.9100
  RMM-DIIS:  cpu time    4.0847: real time    4.0855
    ORTHCH:  cpu time    0.2911: real time    0.2913
       DOS:  cpu time    0.0009: real time    0.0009
    CHARGE:  cpu time    0.1697: real time    0.1697
    MIXING:  cpu time    0.0021: real time    0.0025
    --------------------------------------------
      LOOP:  cpu time    5.5156: real time    5.5236

 eigenvalue-minimisations  :  3931
 total energy-change (2. order) : 0.2103880E+02  (-0.3912558E+02)
 number of electron     434.0000053 magnetization 
 augmentation part       63.0544470 magnetization 

 Broyden mixing:
  rms(total) = 0.43088E+01    rms(broyden)= 0.43088E+01
  rms(prec ) = 0.75048E+01
  weight for this iteration     100.00

 eigenvalues of (default mixing * dielectric matrix)
  average eigenvalue GAMMA=   0.7037
  1.0505  0.3569

 Free energy of the ion-electron system (eV)
  ---------------------------------------------------
  alpha Z        PSCENC =       681.72839503
  Ewald energy   TEWEN  =     99520.43192329
  -Hartree energ DENC   =   -123677.70041419
  -exchange      EXHF   =         0.00000000
  -V(xc)+E(xc)   XCENC  =     -2642.42142782
  PAW double counting   =     30045.23362003   -26001.57479310
  entropy T*S    EENTRO =        -0.00082818
  eigenvalues    EBANDS =     -5312.08827859
  atomic energy  EATOM  =     26611.43226703
  Solvation  Ediel_sol  =         0.00000000
  ---------------------------------------------------
  free energy    TOTEN  =      -774.95953651 eV

  energy without entropy =     -774.95870833  energy(sigma->0) =     -774.95932946


--------------------------------------------------------------------------------------------------------




----------------------------------------- Iteration    1(   8)  ---------------------------------------


    POTLOK:  cpu time    0.0491: real time    0.0491
    SETDIJ:  cpu time    0.0068: real time    0.0068
    EDDIAG:  cpu time    0.9162: real time    0.9165
  RMM-DIIS:  cpu time    4.4590: real time    4.4600
    ORTHCH:  cpu time    0.2886: real time    0.2887
       DOS:  cpu time    0.0010: real time    0.0010
    CHARGE:  cpu time    0.1678: real time    0.1678
    MIXING:  cpu time    0.0024: real time    0.0024
    --------------------------------------------
      LOOP:  cpu time    5.8923: real time    5.9000

 eigenvalue-minimisations  :  4279
 total energy-change (2. order) : 0.7217406E+02  (-0.2220541E+02)
 number of electron     434.0000043 magnetization 
 augmentation part       53.9181618 magnetization 

 Broyden mixing:
  rms(total) = 0.34183E+01    rms(broyden)= 0.34183E+01
  rms(prec ) = 0.49768E+01
  weight for this iteration     100.00

 eigenvalues of (default mixing * dielectric matrix)
  average eigenvalue GAMMA=   0.6715
  1.3403  0.4469  0.2273

 Free energy of the ion-electron system (eV)
  ---------------------------------------------------
  alpha Z        PSCENC =       681.72839503
  Ewald energy   TEWEN  =     99520.43192329
  -Hartree energ DENC   =   -124014.42285254
  -exchange      EXHF   =         0.00000000
  -V(xc)+E(xc)   XCENC  =     -2643.84074385
  PAW double counting   =     31056.34067644   -27016.92093762
  entropy T*S    EENTRO =         0.00567608
  eigenvalues    EBANDS =     -4897.53987883
  atomic energy  EATOM  =     26611.43226703
  Solvation  Ediel_sol  =         0.00000000
  ---------------------------------------------------
  free energy    TOTEN  =      -702.78547498 eV

  energy without entropy =     -702.79115105  energy(sigma->0) =     -702.78689399


--------------------------------------------------------------------------------------------------------




----------------------------------------- Iteration    1(   9)  ---------------------------------------


    POTLOK:  cpu time    0.0490: real time    0.0490
    SETDIJ:  cpu time    0.0068: real time    0.0068
    EDDIAG:  cpu time    0.9386: real time    0.9409
  RMM-DIIS:  cpu time    3.7382: real time    3.7389
    ORTHCH:  cpu time    0.2900: real time    0.2903
       DOS:  cpu time    0.0010: real time    0.0010
    CHARGE:  cpu time    0.1671: real time    0.1671
    MIXING:  cpu time    0.0023: real time    0.0029
    --------------------------------------------
      LOOP:  cpu time    5.1945: real time    5.2054

 eigenvalue-minimisations  :  3617
 total energy-change (2. order) : 0.3916405E+02  (-0.6561327E+01)
 number of electron     434.0000046 magnetization 
 augmentation part       55.3491486 magnetization 

 Broyden mixing:
  rms(total) = 0.19152E+01    rms(broyden)= 0.19152E+01
  rms(prec ) = 0.21528E+01
  weight for this iteration     100.00

 eigenvalues of (default mixing * dielectric matrix)
  average eigenvalue GAMMA=   0.7471
  1.7094  0.5324  0.5324  0.2144

 Free energy of the ion-electron system (eV)
  ---------------------------------------------------
  alpha Z        PSCENC =       681.72839503
  Ewald energy   TEWEN  =     99520.43192329
  -Hartree energ DENC   =   -123981.19109793
  -exchange      EXHF   =         0.00000000
  -V(xc)+E(xc)   XCENC  =     -2640.69972247
  PAW double counting   =     32158.37963449   -28112.17611053
  entropy T*S    EENTRO =        -0.00122020
  eigenvalues    EBANDS =     -4901.52549174
  atomic energy  EATOM  =     26611.43226703
  Solvation  Ediel_sol  =         0.00000000
  ---------------------------------------------------
  free energy    TOTEN  =      -663.62142305 eV

  energy without entropy =     -663.62020285  energy(sigma->0) =     -663.62111800


--------------------------------------------------------------------------------------------------------




----------------------------------------- Iteration    1(  10)  ---------------------------------------


    POTLOK:  cpu time    0.0493: real time    0.0493
    SETDIJ:  cpu time    0.0068: real time    0.0068
    EDDIAG:  cpu time    0.9297: real time    0.9299
  RMM-DIIS:  cpu time    4.2367: real time    4.2376
    ORTHCH:  cpu time    0.2871: real time    0.2872
       DOS:  cpu time    0.0010: real time    0.0010
    CHARGE:  cpu time    0.1672: real time    0.1673
    MIXING:  cpu time    0.0021: real time    0.0021
    --------------------------------------------
      LOOP:  cpu time    5.6814: real time    5.6890

 eigenvalue-minimisations  :  4062
 total energy-change (2. order) : 0.3234378E+01  (-0.5898482E+01)
 number of electron     434.0000047 magnetization 
 augmentation part       59.6403939 magnetization 

 Broyden mixing:
  rms(total) = 0.12790E+01    rms(broyden)= 0.12790E+01
  rms(prec ) = 0.17162E+01
  weight for this iteration     100.00

 eigenvalues of (default mixing * dielectric matrix)
  average eigenvalue GAMMA=   0.7424
  1.9348  0.6202  0.6202  0.3332  0.2034

 Free energy of the ion-electron system (eV)
  ---------------------------------------------------
  alpha Z        PSCENC =       681.72839503
  Ewald energy   TEWEN  =     99520.43192329
  -Hartree energ DENC   =   -124071.75651411
  -exchange      EXHF   =         0.00000000
  -V(xc)+E(xc)   XCENC  =     -2635.25017115
  PAW double counting   =     33130.52325533   -29076.98957591
  entropy T*S    EENTRO =        -0.00439834
  eigenvalues    EBANDS =     -4820.50222644
  atomic energy  EATOM  =     26611.43226703
  Solvation  Ediel_sol  =         0.00000000
  ---------------------------------------------------
  free energy    TOTEN  =      -660.38704527 eV

  energy without entropy =     -660.38264693  energy(sigma->0) =     -660.38594568


--------------------------------------------------------------------------------------------------------




[...]
   0.116E+03 -.558E+02 0.552E+03   -.115E+03 0.559E+02 -.549E+03   -.834E+00 -.243E+00 -.263E+01   0.152E-02 -.134E-02 0.675E-03
   -.118E+03 0.724E+02 0.727E+02   0.118E+03 -.716E+02 -.743E+02   -.156E+00 -.856E+00 0.158E+01   -.150E-03 -.215E-03 -.116E-02
   -.996E+02 0.596E+02 0.606E+03   0.989E+02 -.591E+02 -.603E+03   0.436E+00 -.498E+00 -.290E+01   -.816E-03 0.484E-03 0.105E-02
   0.758E+02 -.200E+02 0.288E+03   -.767E+02 0.194E+02 -.288E+03   0.944E+00 0.956E+00 -.652E+00   -.213E-03 -.114E-04 -.130E-02
   0.467E+02 -.167E+02 -.379E+03   -.474E+02 0.169E+02 0.378E+03   0.735E+00 -.149E+00 0.359E+00   -.516E-03 0.101E-02 -.203E-02
   -.176E+03 0.129E+02 -.306E+03   0.176E+03 -.143E+02 0.305E+03   -.461E+00 0.142E+01 0.124E+01   -.651E-03 -.416E-03 -.147E-02
   -.160E+03 0.555E+01 0.310E+03   0.160E+03 -.538E+01 -.310E+03   0.227E+00 -.325E+00 0.448E-01   0.261E-04 0.119E-02 -.553E-04
   -.150E+03 -.515E+01 0.568E+03   0.149E+03 0.511E+01 -.565E+03   0.764E+00 -.305E-01 -.250E+01   -.159E-03 0.204E-02 0.175E-02
   -.195E+03 -.294E+02 0.443E+02   0.194E+03 0.295E+02 -.456E+02   0.125E+01 -.561E-01 0.135E+01   -.103E-02 -.157E-02 -.361E-03
   0.855E+02 0.841E+01 0.292E+03   -.857E+02 -.798E+01 -.293E+03   0.760E-01 -.140E+00 -.105E+00   0.285E-03 0.284E-03 -.574E-03
   0.122E+03 0.299E+02 -.359E+03   -.121E+03 -.292E+02 0.358E+03   -.114E+01 -.676E+00 0.101E+01   0.226E-02 -.113E-02 -.226E-02
   0.858E+02 0.782E+01 0.337E+02   -.860E+02 -.753E+01 -.339E+02   0.193E+00 -.296E+00 0.163E+00   0.625E-04 -.427E-04 -.197E-02
   0.350E+02 -.147E+01 0.584E+03   -.357E+02 0.140E+01 -.582E+03   0.658E+00 0.172E-01 -.243E+01   -.105E-02 -.925E-03 0.631E-03
   0.132E+03 0.135E+02 0.282E+03   -.132E+03 -.137E+02 -.282E+03   -.803E+00 0.573E+00 -.284E+00   0.727E-03 0.161E-03 -.532E-03
   0.110E+03 0.222E+02 -.378E+03   -.108E+03 -.205E+02 0.377E+03   -.155E+01 -.166E+01 0.138E+01   -.968E-04 0.129E-02 -.238E-02
   0.125E+03 0.818E+01 0.306E+03   -.125E+03 -.809E+01 -.305E+03   0.138E+00 -.238E+00 -.770E+00   0.828E-03 -.128E-04 -.234E-04
   0.875E+02 0.683E+01 -.334E+03   -.892E+02 -.755E+01 0.332E+03   0.168E+01 0.718E+00 0.199E+01   -.139E-02 -.139E-02 -.230E-02
   0.126E+03 0.396E+02 0.515E+03   -.126E+03 -.394E+02 -.513E+03   0.153E+00 -.467E+00 -.272E+01   0.116E-02 0.881E-03 0.104E-03
   0.148E+03 0.342E+02 0.570E+02   -.148E+03 -.333E+02 -.572E+02   -.231E+00 -.873E+00 0.264E+00   0.239E-03 0.867E-03 -.188E-02
   -.988E+02 -.149E+01 0.574E+03   0.990E+02 0.148E+01 -.570E+03   -.402E+00 -.122E-01 -.306E+01   0.221E-03 -.190E-02 0.641E-03
   -.158E+03 0.157E+02 0.236E+02   0.158E+03 -.157E+02 -.232E+02   0.401E+00 -.406E-01 -.339E+00   0.655E-04 0.134E-02 -.144E-02
   0.130E+03 0.291E+02 0.541E+03   -.129E+03 -.294E+02 -.538E+03   -.250E+00 0.344E+00 -.251E+01   0.777E-03 0.324E-03 0.664E-03
   0.149E+03 0.299E+02 0.416E+02   -.149E+03 -.297E+02 -.423E+02   -.561E+00 -.216E+00 0.727E+00   0.238E-03 -.274E-03 -.266E-02
   0.102E+03 -.274E+02 -.330E+03   -.101E+03 0.252E+02 0.328E+03   -.425E+00 0.221E+01 0.177E+01   -.657E-03 -.114E-02 -.184E-02
   0.122E+03 -.813E+01 0.323E+03   -.122E+03 0.781E+01 -.323E+03   0.565E+00 0.404E+00 -.257E+00   0.677E-03 -.284E-03 -.194E-03
   0.351E+02 0.276E+01 0.263E+03   -.349E+02 -.276E+01 -.264E+03   -.177E+00 -.103E-01 0.850E-01   -.737E-03 -.299E-03 -.139E-03
   0.189E+02 -.227E+01 -.308E+03   -.195E+02 0.200E+01 0.306E+03   0.613E+00 0.262E+00 0.148E+01   -.221E-03 0.123E-02 -.175E-02
   -.416E+02 0.713E-01 0.526E+03   0.418E+02 0.302E+00 -.522E+03   -.205E-01 -.272E+00 -.282E+01   -.829E-03 0.216E-03 0.722E-03
   -.725E+02 -.119E+02 0.409E+02   0.725E+02 0.120E+02 -.408E+02   -.636E-02 -.944E-01 -.686E-01   0.771E-03 0.103E-02 -.124E-02
   0.511E+02 -.294E+01 0.508E+03   -.510E+02 0.229E+01 -.504E+03   -.212E-01 0.229E+00 -.308E+01   -.763E-04 -.469E-03 0.114E-03
   0.511E+02 -.125E+01 -.522E-04   -.505E+02 0.765E+00 0.567E+00   -.598E+00 0.482E+00 -.571E+00   -.526E-04 0.476E-03 -.556E-03
   -.714E+02 -.412E+01 0.293E+03   0.714E+02 0.420E+01 -.294E+03   0.229E-01 0.303E+00 0.466E-01   -.526E-03 0.691E-03 -.152E-03
   -.687E+02 -.652E+02 -.354E+03   0.699E+02 0.644E+02 0.351E+03   -.127E+01 0.763E+00 0.234E+01   -.155E-03 -.126E-02 -.141E-02
   0.401E+02 0.959E+00 0.521E+03   -.394E+02 -.878E+00 -.517E+03   -.877E+00 -.292E+00 -.323E+01   -.536E-03 0.273E-03 0.708E-03
   0.331E+02 -.726E+00 0.307E+02   -.326E+02 0.107E+01 -.300E+02   -.541E+00 -.346E+00 -.668E+00   0.514E-05 -.721E-03 -.102E-02
   -.983E+02 0.106E+01 0.274E+03   0.978E+02 -.132E+01 -.274E+03   0.638E+00 0.185E+00 -.387E+00   0.159E-03 -.710E-03 -.120E-02
   -.148E+03 0.342E+02 -.384E+03   0.145E+03 -.348E+02 0.383E+03   0.231E+01 0.590E+00 0.150E+01   0.180E-04 0.990E-03 -.166E-02
   0.239E+02 0.328E+02 -.277E+03   -.229E+02 -.322E+02 0.277E+03   -.993E+00 -.628E+00 0.274E+00   -.563E-03 -.723E-03 -.191E-02
   0.503E+02 -.593E+01 0.298E+03   -.496E+02 0.589E+01 -.299E+03   -.671E+00 0.252E+00 -.186E+00   0.917E-04 0.275E-03 -.187E-03
   -.141E+03 -.427E+02 0.604E+03   0.140E+03 0.421E+02 -.600E+03   0.854E+00 0.682E-01 -.330E+01   -.493E-04 -.236E-03 0.113E-02
   -.142E+03 -.421E+02 0.260E+02   0.142E+03 0.417E+02 -.256E+02   0.145E+00 0.348E+00 -.457E+00   -.111E-02 0.456E-03 -.172E-02
   -.159E+03 0.698E+01 0.300E+03   0.158E+03 -.710E+01 -.301E+03   0.624E+00 0.526E+00 0.241E+00   -.757E-03 -.795E-03 -.739E-03
   -.144E+03 -.406E+02 -.341E+03   0.143E+03 0.417E+02 0.340E+03   0.721E+00 -.112E+01 0.160E+01   -.307E-03 0.349E-03 -.836E-03
   0.175E+03 0.722E+02 -.561E+03   -.176E+03 -.730E+02 0.565E+03   0.692E+00 0.778E+00 -.454E+01   -.758E-03 -.455E-02 -.420E-02
   -.121E+03 0.262E+02 -.810E+03   0.122E+03 -.309E+02 0.824E+03   -.794E+00 0.466E+01 -.148E+02   -.337E-04 0.235E-02 -.177E-02
   0.199E+03 0.171E+02 -.562E+03   -.200E+03 -.187E+02 0.567E+03   0.772E+00 0.152E+01 -.522E+01   -.271E-02 0.530E-02 -.341E-02
   -.137E+03 0.213E+02 -.742E+03   0.138E+03 -.204E+02 0.754E+03   -.736E+00 -.825E+00 -.124E+02   -.366E-03 -.107E-02 -.302E-02
   0.123E+03 -.316E+02 -.810E+03   -.122E+03 0.351E+02 0.829E+03   -.125E+01 -.347E+01 -.188E+02   -.559E-03 -.134E-02 -.406E-02
   0.133E+03 -.116E+02 -.935E+03   -.132E+03 0.109E+02 0.955E+03   -.638E+00 0.685E+00 -.208E+02   -.468E-02 0.322E-02 0.135E-05
   -.137E+03 -.154E+03 -.101E+04   0.140E+03 0.154E+03 0.103E+04   -.288E+01 -.399E+00 -.210E+02   -.617E-03 -.398E-02 -.300E-02
   0.995E+02 0.481E+01 -.986E+03   -.102E+03 -.364E+01 0.101E+04   0.209E+01 -.117E+01 -.221E+02   0.396E-02 0.658E-03 0.176E-02
   0.144E+02 -.192E+02 -.848E+03   -.127E+02 0.162E+02 0.867E+03   -.169E+01 0.302E+01 -.189E+02   -.244E-02 -.339E-02 -.779E-03
   0.788E+02 0.258E+02 -.946E+03   -.810E+02 -.217E+02 0.964E+03   0.218E+01 -.409E+01 -.187E+02   0.478E-02 0.286E-03 -.527E-03
   0.120E+03 -.362E+02 -.871E+03   -.122E+03 0.386E+02 0.892E+03   0.189E+01 -.242E+01 -.208E+02   -.514E-03 0.333E-02 -.496E-03
   -.208E+03 -.385E+01 -.101E+04   0.204E+03 0.801E+01 0.103E+04   0.375E+01 -.416E+01 -.194E+02   0.643E-05 0.260E-03 -.346E-02
   -.350E+03 -.778E+02 -.560E+03   0.353E+03 0.817E+02 0.566E+03   -.283E+01 -.397E+01 -.575E+01   -.366E-02 -.296E-02 0.656E-03
   0.169E+03 0.649E+02 -.104E+04   -.171E+03 -.678E+02 0.106E+04   0.175E+01 0.289E+01 -.242E+02   0.628E-02 -.114E-02 -.186E-02
   -.568E+02 0.849E+02 -.479E+03   0.590E+02 -.884E+02 0.485E+03   -.227E+01 0.350E+01 -.587E+01   0.162E-02 0.295E-02 -.230E-02
 -----------------------------------------------------------------------------------------------
   -.391E+01 0.617E+01 0.259E+03   0.313E-12 0.114E-12 -.136E-11   0.386E+01 -.622E+01 -.258E+03   0.224E-02 0.322E-02 -.971E-01
 
 
 POSITION                                       TOTAL-FORCE (eV/Angst)
 -----------------------------------------------------------------------------------
      8.57631      8.29685     10.39845        -0.064088     -0.151393      0.018024
      8.47644      3.79316     15.13069         0.008416     -0.009364     -0.001538
      8.06887      5.95343     17.24347        -0.002853     -0.006221      0.006863
      8.51616      0.79995     12.43874        -0.051797     -0.072727     -0.005114
     13.49416      6.07511     15.19299        -0.003973      0.000333     -0.004171
     13.49094      1.15316     10.44749        -0.011160     -0.388552     -0.081842
     10.03344      3.28428     12.67411        -0.026903      0.413379     -0.466937
      9.94070      8.05445     17.48885         0.001157      0.003331      0.007363
      7.12524      5.81577     10.15765        -0.159504     -0.511416      0.879546
      7.02602      1.25484     15.07374        -0.000909     -0.004169     -0.002734
      8.51222      3.28036     10.20450         0.233923      0.044982      0.804044
      8.55225      8.29763     14.96363         0.001648     -0.003687     -0.001233
     10.22263      8.06723     12.77991         0.312639      0.237297      0.039117
     10.18244      3.69224     17.49912         0.000694     -0.000028      0.004447
      5.42664      8.10481     10.20639         0.284048      0.059170      0.891012
      5.35165      3.53836     15.12311        -0.001176     -0.002290     -0.003760
      8.52843      5.75423     12.65640         0.222560     -0.065290      0.029372
      8.64358      1.10760     17.49119        -0.004556      0.001461     -0.007575
      3.84829      7.97317     12.47259        -0.581598      0.437669     -0.651990
      3.73107      3.30387     17.39967        -0.003237     -0.003397      0.003351
      3.77635      5.61767     14.79083         0.002861     -0.002535     -0.003776
      3.90063      0.73891     10.00000         0.473769     -0.167006      0.346552
     10.19509      6.04160     15.13478         0.001607      0.001402      0.003831
     10.19112      1.10470     10.13736        -0.228352      0.010477      0.268378
      6.82945      7.99424     12.66670         0.047038      0.298001     -0.459592
      6.81235      3.45852     17.61326        -0.007437     -0.005167      0.005623
     11.89178      6.18281     17.45790        -0.001568     -0.005015     -0.004173
     11.66772      1.05372     12.57547        -0.396522     -0.146380     -0.567096
     11.73919      3.33868     10.41199        -0.239543     -0.066124      0.662897
     11.81045      8.32523     15.34091         0.003009     -0.001654     -0.000017
      7.18522      3.24644     12.75390        -0.154850      0.293597     -0.334482
      7.16382      8.42259     17.39453         0.005970      0.003549      0.006313
      6.79678      6.03911     14.82484         0.002166     -0.004234      0.001419
      6.87795      0.97560     10.08695        -0.033795     -0.047421      0.214777
      5.51084      5.55012     12.48419        -0.161947      0.324787     -0.580292
      5.47317      0.92659     17.50000         0.008314      0.008268      0.002169
      3.51249      3.50019     12.83519         0.066981     -0.145861     -0.317190
      3.13974      8.69281     17.53808         0.000411     -0.001587     -0.003976
      3.46798      5.87237     10.40868         0.099650     -0.230269     -0.038352
      3.49925      1.28751     15.11015         0.000419     -0.001317     -0.004071
     11.91771      8.21633     10.24534        -0.220582     -0.019622      0.724250
     11.95383      3.55656     15.14210         0.001918     -0.000768      0.003581
      5.24135      3.36543     10.32679         0.172293      0.076651      0.151659
      5.13735      8.33814     15.06597         0.001775      0.001077     -0.003999
      5.15325      6.14927     17.36639        -0.001736     -0.004426     -0.002498
      5.28930      0.99064     12.60849         0.319309      0.080231     -0.409417
      1.60538      5.84491     12.85122        -0.006310     -0.009865     -0.554258
      1.30885      1.46804     17.42133         0.002122     -0.003383     -0.005144
     13.72038      5.67134     10.18293         0.212221      0.102288      0.618242
     13.68024      1.02479     14.85938        -0.000702     -0.003904      0.003280
      1.63456      8.33987     10.36453         0.075801     -0.418024      0.132885
      1.58983      3.68284     15.24770         0.002789      0.001670     -0.003850
     13.76831      3.16119     12.53308         0.042963      0.385567     -0.387479
      0.32612      8.16678     17.71121         0.001472     -0.003719     -0.000351
      1.99440      3.17314     10.17666        -0.167171     -0.210595      0.619921
      1.86717      8.07142     15.06306        -0.000711     -0.003827     -0.003729
     13.48051      8.37930     12.86886         0.184640     -0.075698     -0.673870
     13.26970      3.89934     17.99532         0.000327      0.002088      0.001706
      1.94485      5.80568     17.48516        -0.008993      0.002809      0.002060
      2.02729      0.87737     12.46815         0.027500      0.216180     -0.582966
     10.07171      5.79402     10.14663         0.194192     -0.557756      0.201501
     10.05789      1.23966     14.94237         0.002824     -0.002091     -0.002943
     11.97051      5.66181     12.67660        -0.503524      0.398223     -0.430498
     11.79635      1.08927     17.61340        -0.000652     -0.001886     -0.000185
      5.13527      8.37289     17.39266         0.002616      0.000322     -0.004686
     13.45048      1.95151     18.65402         0.002740     -0.008293      0.001984
      3.44487      1.15228     17.47279         0.003789     -0.001623     -0.004410
     13.72285      6.05642     18.32947         0.002181     -0.001666     -0.000442
      3.69677      5.02918     18.39615         0.000148     -0.001074     -0.002463
      5.32771      2.66804     18.49720         0.005042      0.002394     -0.010865
     10.11310      0.20457     18.57454         0.002159     -0.002582     -0.004309
      7.02828      0.48441     18.56673         0.000396     -0.006453     -0.010366
      2.16302      7.60738     18.70903        -0.001044     -0.002680     -0.007032
      8.54081      2.96029     18.39370         0.000193     -0.012474     -0.005897
      6.80093      5.20797     18.34734        -0.004193     -0.004510     -0.003220
     11.46986      4.64886     18.70841        -0.005098     -0.001058     -0.006476
     11.99865      8.31263     17.50556         0.008718      0.001125      0.008380
      8.30394      7.38300     18.47379         0.001763      0.002721     -0.001969
      9.89713      5.91670     17.27903         0.007310     -0.009966     -0.001311
 -----------------------------------------------------------------------------------
    total drift:                               -0.041653     -0.043544     -0.012080


--------------------------------------------------------------------------------------------------------



  FREE ENERGIE OF THE ION-ELECTRON SYSTEM (eV)
  ---------------------------------------------------
  free  energy   TOTEN  =      -655.43743739 eV

  energy  without entropy=     -655.43412805  energy(sigma->0) =     -655.43661006
 


--------------------------------------------------------------------------------------------------------


    POTLOK:  cpu time    0.0619: real time    0.0623


--------------------------------------------------------------------------------------------------------


     LOOP+:  cpu time  197.6184: real time  197.9729
    4ORBIT:  cpu time    0.0000: real time    0.0000
 


 total charge     
 
# of ion     s       p       d       tot
----------------------------------------
  1        0.430   0.364   0.000   0.794
  2        0.410   0.394   0.000   0.805
  3        0.366   0.414   0.000   0.780
  4        0.408   0.389   0.000   0.797
  5        0.423   0.384   0.000   0.808
  6        0.439   0.364   0.000   0.803
  7        2.210   5.988   2.456  10.654
  8        2.192   6.054   2.449  10.694
  9        2.215   5.944   2.506  10.665
 10        2.203   5.996   2.418  10.617
 11        2.219   5.943   2.493  10.655
 12        2.217   5.987   2.481  10.685
 13        2.206   5.990   2.433  10.629
 14        2.178   6.031   2.375  10.584
 15        2.222   5.937   2.567  10.726
 16        2.216   5.986   2.499  10.700
 17        0.725   0.607   3.186   4.518
 18        0.651   0.900   3.345   4.895
 19        0.734   0.584   3.156   4.474
 20        0.675   0.797   3.320   4.791
 21        0.541   0.596   2.378   3.515
 22        0.522   0.387   2.356   3.265
 23        0.465   0.599   2.406   3.470
 24        0.475   0.400   2.358   3.234
 25        0.518   0.626   2.392   3.536
 26        0.518   0.864   2.674   4.057
 27        0.477   0.724   2.754   3.956
 28        0.519   0.574   2.393   3.486
 29        0.508   0.433   2.351   3.292
 30        0.469   0.589   2.391   3.449
 31        0.501   0.603   2.385   3.489
 32        0.543   0.861   2.827   4.231
 33        0.519   0.647   2.457   3.622
 34        0.483   0.441   2.353   3.277
 35        0.539   0.610   2.392   3.540
 36        0.481   0.756   2.713   3.950
 37        0.510   0.570   2.291   3.371
 38        0.498   0.743   2.722   3.963
 39        0.552   0.392   2.308   3.252
 40        0.527   0.554   2.366   3.447
 41        0.507   0.365   2.236   3.108
 42        0.518   0.540   2.267   3.325
 43        0.547   0.409   2.249   3.204
 44        0.540   0.557   2.386   3.483
 45        0.480   0.625   2.369   3.474
 46        0.545   0.555   2.304   3.404
 47        0.533   0.518   2.276   3.327
 48        0.537   0.544   2.506   3.586
 49        0.512   0.340   2.204   3.056
 50        0.558   0.516   2.338   3.411
 51        0.514   0.385   2.209   3.108
 52        0.523   0.540   2.287   3.349
 53        0.545   0.493   2.334   3.372
 54        0.498   0.585   2.437   3.521
 55        0.504   0.352   2.176   3.033
 56        0.516   0.541   2.274   3.332
 57        0.558   0.478   2.362   3.398
 58        0.488   0.631   2.461   3.580
 59        0.480   0.648   2.384   3.512
 60        0.547   0.508   2.317   3.372
 61        0.530   0.389   2.319   3.238
 62        0.535   0.561   2.397   3.494
 63        0.528   0.529   2.288   3.345
 64        0.466   0.594   2.299   3.359
 65        1.561   3.489   0.000   5.051
 66        1.573   3.454   0.000   5.027
 67        1.562   3.498   0.000   5.060
 68        1.566   3.463   0.000   5.028
 69        1.573   3.463   0.000   5.037
 70        1.576   3.455   0.000   5.031
 71        1.571   3.461   0.000   5.033
 72        1.576   3.439   0.000   5.014
 73        1.575   3.433   0.000   5.009
 74        1.574   3.457   0.000   5.031
 75        1.575   3.482   0.000   5.057
 76        1.576   3.449   0.000   5.025
 77        1.564   3.493   0.000   5.057
 78        1.576   3.482   0.000   5.058
 79        1.563   3.542   0.000   5.105
------------------------------------------------
tot       73.573 141.288 142.631 357.492
 

 total amount of memory used by VASP on root node    77583. kBytes
========================================================================

   base      :      30000. kBytes
   nonlr-proj:       8198. kBytes
   fftplans  :       3890. kBytes
   grid      :       8747. kBytes
   one-center:         62. kBytes
   wavefun   :      26686. kBytes
 
  
  
 General timing and accounting informations for this job:
 ========================================================
  
                  Total CPU time used (sec):      216.627
                            User time (sec):      211.823
                          System time (sec):        4.804
                         Elapsed time (sec):      217.003
  
                   Maximum memory used (kb):      158624.
                   Average memory used (kb):           0.
  
                          Minor page faults:        43168
                          Major page faults:            0
                 Voluntary context switches:         3598
