 vasp.5.4.1 05Feb16 (build Mar 19 2020 08:54:17) complex                        
  
 executed on           IFC91_ompi date 2021.11.11  22:54:57
 running on   96 total cores
 distrk:  each k-point on   96 cores,    1 groups
 distr:  one band on NCORES_PER_BAND=  24 cores,    4 groups


--------------------------------------------------------------------------------------------------------


 INCAR:
 POTCAR:    PAW_PBE Al 04Jan2001                  
 POTCAR:    PAW_PBE Nb_sv 25May2007               
 POTCAR:    PAW_PBE Ta 17Jan2003                  
 POTCAR:    PAW_PBE Ti 08Apr2002                  
 POTCAR:   PAW_PBE Zr 08Apr2002                   
 POTCAR:    PAW_PBE O 08Apr2002                   

 ----------------------------------------------------------------------------- 
|                                                                             |
|           W    W    AA    RRRRR   N    N  II  N    N   GGGG   !!!           |
|           W    W   A  A   R    R  NN   N  II  NN   N  G    G  !!!           |
|           W    W  A    A  R    R  N N  N  II  N N  N  G       !!!           |
|           W WW W  AAAAAA  RRRRR   N  N N  II  N  N N  G  GGG   !            |
|           WW  WW  A    A  R   R   N   NN  II  N   NN  G    G                |
|           W    W  A    A  R    R  N    N  II  N    N   GGGG   !!!           |
|                                                                             |
|      For optimal performance we recommend to set                            |
|        NCORE= 4 - approx SQRT( number of cores)                             |
|      NCORE specifies how many cores store one orbital (NPAR=cpu/NCORE).     |
|      This setting can  greatly improve the performance of VASP for DFT.     |
|      The default, NPAR=number of cores might be grossly inefficient         |
|      on modern multi-core architectures or massively parallel machines.     |
|      Do your own testing !!!!                                               |
|      Unfortunately you need to use the default for GW and RPA calculations. |
|      (for HF NCORE is supported but not extensively tested yet)             |
|                                                                             |
 ----------------------------------------------------------------------------- 

 POTCAR:    PAW_PBE Al 04Jan2001                  
   VRHFIN =Al: s2p1                                                             
   LEXCH  = PE                                                                  
   EATOM  =    53.5387 eV,    3.9350 Ry                                         
                                                                                
   TITEL  = PAW_PBE Al 04Jan2001                                                
   LULTRA =        F    use ultrasoft PP ?                                      
   IUNSCR =        1    unscreen: 0-lin 1-nonlin 2-no                           
   RPACOR =    1.500    partial core radius                                     
   POMASS =   26.981; ZVAL   =    3.000    mass and valenz                      
   RCORE  =    1.900    outmost cutoff radius                                   
   RWIGS  =    2.650; RWIGS  =    1.402    wigner-seitz radius (au A)           
   ENMAX  =  240.300; ENMIN  =  180.225 eV                                      
   ICORE  =        2    local potential                                         
   LCOR   =        T    correct aug charges                                     
   LPAW   =        T    paw PP                                                  
   EAUG   =  291.052                                                            
   DEXC   =    0.000                                                            
   RMAX   =    1.939    core radius for proj-oper                               
   RAUG   =    1.300    factor for augmentation sphere                          
   RDEP   =    1.966    radius for radial grids                                 
   RDEPT  =    1.856    core radius for aug-charge                              
                                                                                
   Atomic configuration                                                         
    6 entries                                                                   
     n  l   j            E        occ.                                          
     1  0  0.50     -1511.1048   2.0000                                         
     2  0  0.50      -108.1629   2.0000                                         
     2  1  1.50       -69.6402   6.0000                                         
     3  0  0.50        -7.7528   2.0000                                         
     3  1  1.50        -2.7121   1.0000                                         
     3  2  2.50        -2.7212   0.0000                                         
   Description                                                                  
     l       E           TYP  RCUT    TYP  RCUT                                 
     0     -7.7528455     23  1.900                                             
     0     -3.3096929     23  1.900                                             
     1     -2.7120682     23  1.900                                             
     1     13.6058260     23  1.900                                             
     2     -2.7211652      7  1.900                                             
  local pseudopotential read in
  partial core-charges read in
  partial kinetic energy density read in
  atomic valenz-charges read in
  non local Contribution for L=           0  read in
    real space projection operators read in
  non local Contribution for L=           0  read in
    real space projection operators read in
  non local Contribution for L=           1  read in
    real space projection operators read in
  non local Contribution for L=           1  read in
    real space projection operators read in
    PAW grid and wavefunctions read in
 
   number of l-projection  operators is LMAX  =           4
   number of lm-projection operators is LMMAX =           8
 
 POTCAR:    PAW_PBE Nb_sv 25May2007               
   VRHFIN =Nb: 4p5s4d                                                           
   LEXCH  = PE                                                                  
   EATOM  =  1555.1913 eV,  114.3033 Ry                                         
                                                                                
   TITEL  = PAW_PBE Nb_sv 25May2007                                             
   LULTRA =        F    use ultrasoft PP ?                                      
   IUNSCR =        1    unscreen: 0-lin 1-nonlin 2-no                           
   RPACOR =    1.800    partial core radius                                     
   POMASS =   92.910; ZVAL   =   13.000    mass and valenz                      
   RCORE  =    2.400    outmost cutoff radius                                   
   RWIGS  =    2.400; RWIGS  =    1.270    wigner-seitz radius (au A)           
   ENMAX  =  293.235; ENMIN  =  219.927 eV                                      
   ICORE  =        3    local potential                                         
   LCOR   =        T    correct aug charges                                     
   LPAW   =        T    paw PP                                                  
   EAUG   =  455.659                                                            
   DEXC   =    0.000                                                            
   RMAX   =    2.456    core radius for proj-oper                               
   RAUG   =    1.300    factor for augmentation sphere                          
   RDEP   =    2.451    radius for radial grids                                 
   RDEPT  =    1.956    core radius for aug-charge                              
                                                                                
   Atomic configuration                                                         
   11 entries                                                                   
     n  l   j            E        occ.                                          
     1  0  0.50    -18805.2457   2.0000                                         
     2  0  0.50     -2630.2869   2.0000                                         
     2  1  1.50     -2348.4046   6.0000                                         
     3  0  0.50      -438.8757   2.0000                                         
     3  1  1.50      -346.7588   6.0000                                         
     3  2  2.50      -196.2560  10.0000                                         
     4  0  0.50       -58.3859   2.0000                                         
     5  0  0.50        -3.9816   1.0000                                         
     4  1  1.50       -34.5141   6.0000                                         
     4  2  2.50        -3.0408   4.0000                                         
     4  3  2.50        -1.3606   0.0000                                         
   Description                                                                  
     l       E           TYP  RCUT    TYP  RCUT                                 
     0    -58.3859094     23  2.200                                             
     0     -3.9816262     23  2.200                                             
     1    -34.5140738     23  2.200                                             
     1     13.6058260     23  2.200                                             
     2     -3.0408010     23  2.200                                             
     2     -0.1283038     23  2.200                                             
     3     -1.3605826     23  2.400                                             
  local pseudopotential read in
  partial core-charges read in
  partial kinetic energy density read in
  atomic valenz-charges read in
  non local Contribution for L=           0  read in
    real space projection operators read in
  non local Contribution for L=           0  read in
    real space projection operators read in
  non local Contribution for L=           1  read in
    real space projection operators read in
  non local Contribution for L=           1  read in
    real space projection operators read in
  non local Contribution for L=           2  read in
    real space projection operators read in
  non local Contribution for L=           2  read in
    real space projection operators read in
    PAW grid and wavefunctions read in
 
   number of l-projection  operators is LMAX  =           6
   number of lm-projection operators is LMMAX =          18
 
 POTCAR:    PAW_PBE Ta 17Jan2003                  
   VRHFIN =Ta:  6s5d                                                            
   LEXCH  = PE                                                                  
   EATOM  =   130.6506 eV,    9.6025 Ry                                         
                                                                                
   TITEL  = PAW_PBE Ta 17Jan2003                                                
   LULTRA =        F    use ultrasoft PP ?                                      
   IUNSCR =        1    unscreen: 0-lin 1-nonlin 2-no                           
   RPACOR =    2.330    partial core radius                                     
   POMASS =  180.948; ZVAL   =    5.000    mass and valenz                      
   RCORE  =    2.900    outmost cutoff radius                                   
   RWIGS  =    2.840; RWIGS  =    1.503    wigner-seitz radius (au A)           
   ENMAX  =  223.667; ENMIN  =  167.750 eV                                      
   RCLOC  =    2.205    cutoff for local pot                                    
   LCOR   =        T    correct aug charges                                     
   LPAW   =        T    paw PP                                                  
   EAUG   =  332.075                                                            
   DEXC   =    0.000                                                            
   RMAX   =    2.970    core radius for proj-oper                               
   RAUG   =    1.300    factor for augmentation sphere                          
   RDEP   =    3.060    radius for radial grids                                 
   RDEPT  =    2.354    core radius for aug-charge                              
                                                                                
   Atomic configuration                                                         
   16 entries                                                                   
     n  l   j            E        occ.                                          
     1  0  0.50    -67341.2807   2.0000                                         
     2  0  0.50    -11566.9376   2.0000                                         
     2  1  1.50    -10134.1182   6.0000                                         
     3  0  0.50     -2648.5620   2.0000                                         
     3  1  1.50     -2222.6012   6.0000                                         
     3  2  2.50     -1726.3120  10.0000                                         
     4  0  0.50      -538.6961   2.0000                                         
     4  1  1.50      -399.0129   6.0000                                         
     4  2  2.50      -220.3959  10.0000                                         
     4  3  3.50       -23.0374  14.0000                                         
     5  0  0.50       -71.2901   2.0000                                         
     5  1  1.50       -37.8225   6.0000                                         
     5  2  2.50        -2.6455   4.0000                                         
     6  0  0.50        -4.9623   1.0000                                         
     6  1  1.50        -1.3606   0.0000                                         
     5  3  2.50        -1.3606   0.0000                                         
   Description                                                                  
     l       E           TYP  RCUT    TYP  RCUT                                 
     2     -2.6455043     23  2.500                                             
     2     -0.6258895     23  2.500                                             
     0     -4.9622780     23  2.500                                             
     0      4.7531321     23  2.500                                             
     1     -1.3605826     23  2.900                                             
     1     27.2116520     23  2.900                                             
  local pseudopotential read in
  partial core-charges read in
  partial kinetic energy density read in
  atomic valenz-charges read in
  non local Contribution for L=           2  read in
    real space projection operators read in
  non local Contribution for L=           2  read in
    real space projection operators read in
  non local Contribution for L=           0  read in
    real space projection operators read in
  non local Contribution for L=           0  read in
    real space projection operators read in
  non local Contribution for L=           1  read in
    real space projection operators read in
  non local Contribution for L=           1  read in
    real space projection operators read in
    PAW grid and wavefunctions read in
 
   number of l-projection  operators is LMAX  =           6
   number of lm-projection operators is LMMAX =          18
 
 POTCAR:    PAW_PBE Ti 08Apr2002                  
   VRHFIN =Ti: d3 s1                                                            
   LEXCH  = PE                                                                  
   EATOM  =    94.7928 eV,    6.9671 Ry                                         
                                                                                
   TITEL  = PAW_PBE Ti 08Apr2002                                                
   LULTRA =        F    use ultrasoft PP ?                                      
   IUNSCR =        1    unscreen: 0-lin 1-nonlin 2-no                           
   RPACOR =    2.200    partial core radius                                     
   POMASS =   47.880; ZVAL   =    4.000    mass and valenz                      
   RCORE  =    2.800    outmost cutoff radius                                   
   RWIGS  =    2.500; RWIGS  =    1.323    wigner-seitz radius (au A)           
   ENMAX  =  178.330; ENMIN  =  133.747 eV                                      
   RCLOC  =    2.215    cutoff for local pot                                    
   LCOR   =        T    correct aug charges                                     
   LPAW   =        T    paw PP                                                  
   EAUG   =  328.883                                                            
   DEXC   =    0.000                                                            
   RMAX   =    2.868    core radius for proj-oper                               
   RAUG   =    1.300    factor for augmentation sphere                          
   RDEP   =    2.885    radius for radial grids                                 
   RDEPT  =    2.320    core radius for aug-charge                              
                                                                                
   Atomic configuration                                                         
    9 entries                                                                   
     n  l   j            E        occ.                                          
     1  0  0.50     -4865.3608   2.0000                                         
     2  0  0.50      -533.1367   2.0000                                         
     2  1  1.50      -440.5031   6.0000                                         
     3  0  0.50       -59.3186   2.0000                                         
     3  1  1.50       -35.7012   6.0000                                         
     3  2  2.50        -1.9157   3.0000                                         
     4  0  0.50        -3.7291   1.0000                                         
     4  1  1.50        -4.0817   0.0000                                         
     4  3  2.50        -1.3606   0.0000                                         
   Description                                                                  
     l       E           TYP  RCUT    TYP  RCUT                                 
     2     -1.9156924     23  2.800                                             
     2     -0.4062961     23  2.800                                             
     0     -3.7290832     23  2.800                                             
     0     20.4087390     23  2.800                                             
     1     -5.4423304     23  2.800                                             
  local pseudopotential read in
  partial core-charges read in
  partial kinetic energy density read in
  atomic valenz-charges read in
  non local Contribution for L=           2  read in
    real space projection operators read in
  non local Contribution for L=           2  read in
    real space projection operators read in
  non local Contribution for L=           0  read in
    real space projection operators read in
  non local Contribution for L=           0  read in
    real space projection operators read in
  non local Contribution for L=           1  read in
    real space projection operators read in
    PAW grid and wavefunctions read in
 
   number of l-projection  operators is LMAX  =           5
   number of lm-projection operators is LMMAX =          15
 
 POTCAR:   PAW_PBE Zr 08Apr2002                   
   VRHFIN =Zr: 5s4d5p                                                           
   LEXCH  = PE                                                                  
   EATOM  =    77.8472 eV,    5.7216 Ry                                         
                                                                                
   TITEL  = PAW_PBE Zr 08Apr2002                                                
   LULTRA =        F    use ultrasoft PP ?                                      
   IUNSCR =        1    unscreen: 0-lin 1-nonlin 2-no                           
   RPACOR =    2.200    partial core radius                                     
   POMASS =   91.224; ZVAL   =    4.000    mass and valenz                      
   RCORE  =    3.000    outmost cutoff radius                                   
   RWIGS  =    3.070; RWIGS  =    1.625    wigner-seitz radius (au A)           
   ENMAX  =  154.632; ENMIN  =  115.974 eV                                      
   RCLOC  =    2.213    cutoff for local pot                                    
   LCOR   =        T    correct aug charges                                     
   LPAW   =        T    paw PP                                                  
   EAUG   =  243.217                                                            
   DEXC   =    -.082                                                            
   RMAX   =    3.708    core radius for proj-oper                               
   RAUG   =    1.300    factor for augmentation sphere                          
   RDEP   =    3.146    radius for radial grids                                 
   QCUT   =   -3.371; QGAM   =    6.742    optimization parameters              
                                                                                
   Description                                                                  
     l     E      TYP  RCUT    TYP  RCUT                                        
     2   .000     23  3.000                                                     
     2   .000     23  3.000                                                     
     0   .000     23  3.000                                                     
     0  2.000     23  3.000                                                     
     1  -.400     23  3.000                                                     
     3   .000      7   .000                                                     
  local pseudopotential read in
  partial core-charges read in
  atomic valenz-charges read in
  non local Contribution for L=           2  read in
    real space projection operators read in
  non local Contribution for L=           2  read in
    real space projection operators read in
  non local Contribution for L=           0  read in
    real space projection operators read in
  non local Contribution for L=           0  read in
    real space projection operators read in
  non local Contribution for L=           1  read in
    real space projection operators read in
    PAW grid and wavefunctions read in
 
   number of l-projection  operators is LMAX  =           5
   number of lm-projection operators is LMMAX =          15
 
 POTCAR:    PAW_PBE O 08Apr2002                   
   VRHFIN =O: s2p4                                                              
   LEXCH  = PE                                                                  
   EATOM  =   432.3788 eV,   31.7789 Ry                                         
                                                                                
   TITEL  = PAW_PBE O 08Apr2002                                                 
   LULTRA =        F    use ultrasoft PP ?                                      
   IUNSCR =        1    unscreen: 0-lin 1-nonlin 2-no                           
   RPACOR =    1.200    partial core radius                                     
   POMASS =   16.000; ZVAL   =    6.000    mass and valenz                      
   RCORE  =    1.520    outmost cutoff radius                                   
   RWIGS  =    1.550; RWIGS  =    0.820    wigner-seitz radius (au A)           
   ENMAX  =  400.000; ENMIN  =  300.000 eV                                      
   ICORE  =        2    local potential                                         
   LCOR   =        T    correct aug charges                                     
   LPAW   =        T    paw PP                                                  
   EAUG   =  605.392                                                            
   DEXC   =    0.000                                                            
   RMAX   =    1.553    core radius for proj-oper                               
   RAUG   =    1.300    factor for augmentation sphere                          
   RDEP   =    1.550    radius for radial grids                                 
   RDEPT  =    1.329    core radius for aug-charge                              
                                                                                
   Atomic configuration                                                         
    4 entries                                                                   
     n  l   j            E        occ.                                          
     1  0  0.50      -514.6923   2.0000                                         
     2  0  0.50       -23.9615   2.0000                                         
     2  1  0.50        -9.0305   4.0000                                         
     3  2  1.50        -9.5241   0.0000                                         
   Description                                                                  
     l       E           TYP  RCUT    TYP  RCUT                                 
     0    -23.9615318     23  1.200                                             
     0     -9.5240782     23  1.200                                             
     1     -9.0304911     23  1.520                                             
     1      8.1634956     23  1.520                                             
     2     -9.5240782      7  1.500                                             
  local pseudopotential read in
  partial core-charges read in
  partial kinetic energy density read in
  kinetic energy density of atom read in
  atomic valenz-charges read in
  non local Contribution for L=           0  read in
    real space projection operators read in
  non local Contribution for L=           0  read in
    real space projection operators read in
  non local Contribution for L=           1  read in
    real space projection operators read in
  non local Contribution for L=           1  read in
    real space projection operators read in
    PAW grid and wavefunctions read in
 
   number of l-projection  operators is LMAX  =           4
   number of lm-projection operators is LMMAX =           8
 
 Optimization of the real space projectors (new method)

 maximal supplied QI-value         = 19.84
 optimisation between [QCUT,QGAM] = [ 12.50, 25.00] = [ 43.76,175.03] Ry 
 Optimized for a Real-space Cutoff    1.06 Angstroem

   l    n(q)    QCUT    max X(q) W(low)/X(q) W(high)/X(q)  e(spline) 
   0      8    12.501   176.870    0.16E-03    0.12E-03    0.66E-07
   0      8    12.501   105.762    0.15E-03    0.12E-03    0.64E-07
   1      7    12.501    55.370    0.36E-03    0.38E-03    0.67E-07
   1      7    12.501    20.208    0.32E-03    0.35E-03    0.64E-07
 Optimization of the real space projectors (new method)

 maximal supplied QI-value         = 15.68
 optimisation between [QCUT,QGAM] = [ 12.55, 25.10] = [ 44.09,176.36] Ry 
 Optimized for a Real-space Cutoff    1.56 Angstroem

   l    n(q)    QCUT    max X(q) W(low)/X(q) W(high)/X(q)  e(spline) 
   0     12    12.548    10.201    0.21E-04    0.36E-05    0.83E-07
   0     12    12.548     8.174    0.31E-04    0.62E-05    0.15E-06
   1     11    12.548     3.488    0.79E-05    0.23E-04    0.21E-06
   1     11    12.548     4.917    0.56E-04    0.13E-03    0.11E-05
   2     11    12.548   153.744    0.25E-03    0.10E-03    0.15E-05
   2     11    12.548   126.342    0.25E-03    0.10E-03    0.15E-05
 Optimization of the real space projectors (new method)

 maximal supplied QI-value         = 12.85
 optimisation between [QCUT,QGAM] = [ 12.46, 25.06] = [ 43.51,175.83] Ry 
 Optimized for a Real-space Cutoff    1.56 Angstroem

   l    n(q)    QCUT    max X(q) W(low)/X(q) W(high)/X(q)  e(spline) 
   2     11    12.465    62.315    0.36E-03    0.20E-03    0.15E-05
   2     11    12.465    52.185    0.36E-03    0.20E-03    0.15E-05
   0     12    12.465   103.837    0.22E-04    0.37E-05    0.56E-06
   0     12    12.465    59.728    0.20E-04    0.34E-05    0.51E-06
   1     11    12.465    13.958    0.44E-03    0.81E-03    0.81E-05
   1     11    12.465     8.441    0.31E-03    0.56E-03    0.56E-05
 Optimization of the real space projectors (new method)

 maximal supplied QI-value         = 13.42
 optimisation between [QCUT,QGAM] = [ 12.48, 25.09] = [ 43.60,176.28] Ry 
 Optimized for a Real-space Cutoff    1.56 Angstroem

   l    n(q)    QCUT    max X(q) W(low)/X(q) W(high)/X(q)  e(spline) 
   2     11    12.478    49.363    0.45E-03    0.34E-03    0.89E-06
   2     11    12.478    47.669    0.44E-03    0.33E-03    0.87E-06
   0     12    12.478    26.374    0.17E-03    0.37E-04    0.21E-05
   0     12    12.478    11.549    0.13E-03    0.31E-04    0.17E-05
   1     11    12.478     9.492    0.91E-05    0.64E-04    0.34E-06
 Optimization of the real space projectors (new method)

 maximal supplied QI-value         = 12.47
 optimisation between [QCUT,QGAM] = [ 12.47, 25.07] = [ 43.56,175.99] Ry 
 Optimized for a Real-space Cutoff    1.70 Angstroem

   l    n(q)    QCUT    max X(q) W(low)/X(q) W(high)/X(q)  e(spline) 
   2     12    12.472     5.149    0.23E-04    0.12E-05    0.19E-06
   2     12    12.472    48.417    0.26E-03    0.15E-03    0.35E-05
   0     13    12.472    27.113    0.15E-04    0.46E-05    0.14E-06
   0     13    12.472    33.957    0.20E-04    0.33E-04    0.12E-05
   1     12    12.472    13.771    0.11E-04    0.23E-05    0.34E-06
 WARNING: PSMAXN for non-local potential too small
          PSMAXN should be >   12.5490833729506       NTYP=           5
 Optimization of the real space projectors (new method)

 maximal supplied QI-value         = 24.76
 optimisation between [QCUT,QGAM] = [ 12.38, 25.00] = [ 42.90,175.06] Ry 
 Optimized for a Real-space Cutoff    1.13 Angstroem

   l    n(q)    QCUT    max X(q) W(low)/X(q) W(high)/X(q)  e(spline) 
   0      8    12.378    20.381    0.16E-03    0.54E-05    0.27E-06
   0      8    12.378    15.268    0.17E-03    0.61E-05    0.29E-06
   1      8    12.378     5.964    0.38E-03    0.23E-03    0.28E-06
   1      8    12.378     5.382    0.33E-03    0.20E-03    0.25E-06
  PAW_PBE Al 04Jan2001                  :
 energy of atom  1       EATOM=  -53.5387
 kinetic energy error for atom=    0.0002 (will be added to EATOM!!)
  PAW_PBE Nb_sv 25May2007               :
 energy of atom  2       EATOM=-1555.1913
 kinetic energy error for atom=    0.0037 (will be added to EATOM!!)
  PAW_PBE Ta 17Jan2003                  :
 energy of atom  3       EATOM= -130.6506
 kinetic energy error for atom=    0.0004 (will be added to EATOM!!)
  PAW_PBE Ti 08Apr2002                  :
 energy of atom  4       EATOM=  -94.7928
 kinetic energy error for atom=    0.0001 (will be added to EATOM!!)
 PAW_PBE Zr 08Apr2002                   :
 energy of atom  5       EATOM=  -77.8472
 kinetic energy error for atom=    0.0001 (will be added to EATOM!!)
  PAW_PBE O 08Apr2002                   :
 energy of atom  6       EATOM= -432.3788
 kinetic energy error for atom=    0.0168 (will be added to EATOM!!)
 
 
 POSCAR: Al Nb Ta Ti Zr                          
  positions in direct lattice
  velocities in cartesian coordinates
 exchange correlation table for  LEXCH =        8
   RHO(1)=    0.500       N(1)  =     2000
   RHO(2)=  100.500       N(2)  =     4000
 


--------------------------------------------------------------------------------------------------------


 ion  position               nearest neighbor table
   1  0.623  0.867  0.376-  34 2.83  25 2.88  24 2.88   9 2.88  13 2.90   4 2.91  61 2.93  15 3.16
                            41 3.35  17 3.40
   2  0.624  0.388  0.548-  14 2.79  26 2.80  23 2.81  31 2.82  33 2.83  10 2.87   7 2.89  62 2.99
                            18 3.12   3 3.19  17 3.22  42 3.32
   3  0.615  0.629  0.627-  32 2.69  14 2.78   8 2.82  26 2.84  23 2.91  33 2.92  27 3.13   2 3.19
                            45 3.20
   4  0.618  0.084  0.450-  31 2.80  24 2.86  34 2.87  13 2.88   1 2.91  25 2.92   7 2.92  10 2.96
                            62 2.96  12 3.16  28 3.16  46 3.24
   5  0.981  0.636  0.550-  30 2.78  27 2.90  42 2.90  56 2.94  63 2.99  52 3.01  47 3.02  54 3.07
                            59 3.21  58 3.22  57 3.28
   6  0.980  0.121  0.378-  29 2.80  28 2.80  53 2.91  41 2.96  51 3.05  55 3.05  60 3.08  57 3.37

   7  0.729  0.343  0.458-  28 2.77  29 2.83  31 2.85  17 2.89   2 2.89  11 2.90   4 2.92  62 3.03
                            63 3.07  42 3.09
   8  0.727  0.876  0.623-  71 2.03  30 2.65  32 2.67  27 2.70  12 2.81   3 2.82  18 2.95  64 3.22
                            62 3.36
   9  0.517  0.608  0.367-  35 2.84  15 2.85  17 2.87   1 2.88  11 2.89  61 2.95  43 3.10
  10  0.514  0.135  0.541-  16 2.82  18 2.84   2 2.87  12 2.92  36 2.92   4 2.96  31 2.96  46 2.98
                            62 3.10  44 3.12
  11  0.618  0.343  0.369-  24 2.75  34 2.83  31 2.87   9 2.89   7 2.90  61 2.96  43 3.27
  12  0.619  0.871  0.537-  13 2.70  32 2.76  25 2.79  23 2.80   8 2.81  33 2.91  10 2.92  62 2.93
                             4 3.16  44 3.30
  13  0.742  0.843  0.462-  12 2.70  17 2.87   4 2.88   1 2.90  30 2.91  28 2.94  63 2.98  23 2.98
                            41 3.05  57 3.27  62 3.40
  14  0.747  0.410  0.627-  27 2.63   3 2.78  42 2.78   2 2.79  18 2.93  64 3.00  58 3.12
  15  0.394  0.847  0.369-  22 2.68  19 2.76  25 2.83  34 2.84   9 2.85  39 2.98   1 3.16  46 3.43

  16  0.390  0.369  0.546-  21 2.65  26 2.77  20 2.82  10 2.82  33 2.84  40 2.91  37 2.92  31 2.97

  17  0.619  0.602  0.458-  33 2.81  25 2.81  23 2.83  31 2.85   9 2.87  13 2.87   7 2.89  61 2.95
                            35 3.03   2 3.22   1 3.40  63 3.44
  18  0.631  0.153  0.625-  72 2.04  71 2.14  26 2.82  10 2.84  62 2.87  32 2.90  14 2.93   8 2.95
                             2 3.12  36 3.13  64 3.21
  19  0.279  0.834  0.451-  15 2.76  35 2.94  46 2.96  39 2.97  25 2.99  44 3.00  60 3.07  51 3.08
                            47 3.12  56 3.19  21 3.28
  20  0.281  0.353  0.631-  69 2.00  70 2.04  67 2.20  16 2.82  36 2.95  48 3.05  26 3.06  52 3.07
                            40 3.09  45 3.16  59 3.23
  21  0.281  0.596  0.537-  16 2.65  35 2.88  44 2.98  45 3.00  52 3.00  37 3.00  33 3.00  47 3.02
                            56 3.12  59 3.25  19 3.28
  22  0.283  0.077  0.361-  15 2.68  46 2.97  43 2.97  34 2.99  51 3.02  55 3.10  60 3.10
  23  0.737  0.632  0.541-  30 2.74  12 2.80   2 2.81  27 2.83  17 2.83   3 2.91  63 2.95  42 2.97
                            13 2.98
  24  0.740  0.115  0.366-  29 2.73  11 2.75  28 2.85   4 2.86   1 2.88  41 3.00
  25  0.496  0.836  0.458-  35 2.78  12 2.79  17 2.81  15 2.83   1 2.88   4 2.92  44 2.94  19 2.99
                            46 2.99  33 3.04
  26  0.502  0.381  0.629-  70 1.93  16 2.77   2 2.80  18 2.82   3 2.84  36 2.96  45 3.03  20 3.06

  27  0.842  0.649  0.628-  68 2.15  14 2.63   8 2.70  58 2.74  23 2.83   5 2.90  30 2.96  54 3.02
                             3 3.13  42 3.43
  28  0.847  0.110  0.455-  62 2.73   7 2.77   6 2.80  24 2.85  57 2.90  13 2.94  53 2.98  29 3.15
                             4 3.16  50 3.18  41 3.36
  29  0.852  0.349  0.376-  24 2.73   6 2.80   7 2.83  53 2.94  61 2.98  49 3.07  28 3.15  63 3.25

  30  0.854  0.862  0.551-   8 2.65  23 2.74   5 2.78  54 2.86  13 2.91  57 2.94  27 2.96  62 2.99
                            50 3.10
  31  0.522  0.339  0.461-   4 2.80   2 2.82  17 2.85   7 2.85  35 2.86  11 2.87  46 2.95  10 2.96
                            16 2.97  43 3.11
  32  0.533  0.885  0.627-  72 1.96  65 2.05   8 2.67   3 2.69  36 2.73  12 2.76  18 2.90  45 3.07
                            44 3.08
  33  0.498  0.621  0.539-  35 2.80  17 2.81   2 2.83  16 2.84  44 2.91  12 2.91   3 2.92  45 2.99
                            21 3.00  25 3.04
  34  0.499  0.102  0.365-  11 2.83   1 2.83  15 2.84   4 2.87  43 2.91  46 2.98  22 2.99
  35  0.400  0.580  0.451-  25 2.78  33 2.80   9 2.84  31 2.86  21 2.88  37 2.88  39 2.93  19 2.94
                            17 3.03  43 3.08
  36  0.407  0.104  0.632-  72 1.99  70 2.04  67 2.06  65 2.16  32 2.73  10 2.92  20 2.95  26 2.96
                            38 2.97  18 3.13  40 3.14  44 3.27
  37  0.255  0.366  0.464-  35 2.88  16 2.92  21 3.00  47 3.02  60 3.04  43 3.05  55 3.08  46 3.08
                            52 3.17  40 3.21  39 3.39
  38  0.240  0.909  0.625-  65 2.03  67 2.11  56 2.77  44 2.93  36 2.97  59 2.99  40 3.03  48 3.11
                            45 3.19  54 3.35
  39  0.252  0.614  0.376-  35 2.93  19 2.97  15 2.98  47 3.07  43 3.07  51 3.07  55 3.08  37 3.39
                            49 3.53
  40  0.253  0.138  0.549-  67 2.39  16 2.91  38 3.03  52 3.06  20 3.09  44 3.09  60 3.12  36 3.14
                            46 3.17  37 3.21  48 3.22  56 3.23  50 3.58
  41  0.865  0.859  0.370-   6 2.96  24 3.00  61 3.05  13 3.05  57 3.06  49 3.12   1 3.35  28 3.36
                            51 3.49  63 3.53
  42  0.865  0.383  0.546-  14 2.78   5 2.90  23 2.97  62 3.03  58 3.09   7 3.09  50 3.11  63 3.15
                            53 3.21   2 3.32  27 3.43  64 3.46  52 3.52
  43  0.381  0.352  0.373-  34 2.91  22 2.97  37 3.05  39 3.07  35 3.08   9 3.10  31 3.11  55 3.26
                            11 3.27  46 3.29
  44  0.380  0.872  0.546-  65 2.35  33 2.91  38 2.93  25 2.94  21 2.98  19 3.00  32 3.08  40 3.09
                            10 3.12  45 3.17  36 3.27  12 3.30  46 3.34  56 3.37
  45  0.383  0.648  0.630-  69 2.13  65 2.23  33 2.99  21 3.00  26 3.03  32 3.07  20 3.16  44 3.17
                            38 3.19   3 3.20  59 3.28
  46  0.384  0.104  0.456-  31 2.95  19 2.96  22 2.97  10 2.98  34 2.98  25 2.99  37 3.08  40 3.17
                             4 3.24  60 3.27  43 3.29  44 3.34  15 3.43
  47  0.117  0.611  0.465-  21 3.02   5 3.02  37 3.02  39 3.07  56 3.11  19 3.12  53 3.14  49 3.15
                            57 3.17  52 3.27  63 3.42  51 3.52  55 3.80
  48  0.102  0.165  0.638-  66 2.08  67 2.19  50 3.04  20 3.05  38 3.11  58 3.15  52 3.15  54 3.17
                            40 3.22  64 3.30
  49  0.996  0.593  0.368-  63 3.05  29 3.07  41 3.12  47 3.15  51 3.16  55 3.23  53 3.44  39 3.53
                            61 3.65  57 3.82
  50  0.993  0.115  0.543-  48 3.04  30 3.10  42 3.11  57 3.15  28 3.18  52 3.20  56 3.23  53 3.24
                            54 3.25  64 3.25  60 3.33  62 3.51  40 3.58
  51  0.119  0.872  0.375-  60 3.00  22 3.02   6 3.05  39 3.07  19 3.08  57 3.16  49 3.16  41 3.49
                            47 3.52
  52  0.120  0.394  0.556-  21 3.00   5 3.01  40 3.06  20 3.07  59 3.10  48 3.15  37 3.17  58 3.18
                            50 3.20  47 3.27  53 3.35  42 3.52
  53  1.000  0.331  0.453-   6 2.91  29 2.94  28 2.98  60 3.06  63 3.08  55 3.09  47 3.14  42 3.21
                            50 3.24  52 3.35  49 3.44
  54  0.998  0.871  0.625-  68 2.20  30 2.86  56 3.01  27 3.02   5 3.07  59 3.09  48 3.17  50 3.25
                            64 3.26  38 3.35
  55  0.145  0.332  0.368-   6 3.05  37 3.08  39 3.08  53 3.09  22 3.10  49 3.23  60 3.24  43 3.26
                            47 3.80
  56  0.136  0.846  0.541-  38 2.77   5 2.94  54 3.01  57 3.03  47 3.11  21 3.12  19 3.19  40 3.23
                            50 3.23  59 3.26  44 3.37  60 3.44
  57  0.979  0.876  0.465-  28 2.90  30 2.94  56 3.03  41 3.06  63 3.11  60 3.13  50 3.15  51 3.16
                            47 3.17  13 3.27   5 3.28   6 3.37  49 3.82
  58  0.971  0.434  0.643-  66 2.09  68 2.19  27 2.74  59 3.05  42 3.09  14 3.12  64 3.13  48 3.15
                            52 3.18   5 3.22
  59  0.145  0.629  0.632-  69 2.13  68 2.28  38 2.99  58 3.05  54 3.09  52 3.10   5 3.21  20 3.23
                            21 3.25  56 3.26  45 3.28
  60  0.147  0.092  0.451-  51 3.00  37 3.04  53 3.06  19 3.07   6 3.08  22 3.10  40 3.12  57 3.13
                            55 3.24  46 3.27  50 3.33  56 3.44
  61  0.731  0.606  0.367-   1 2.93  17 2.95   9 2.95  11 2.96  29 2.98  41 3.05  63 3.17  49 3.65

  62  0.739  0.124  0.537-  28 2.73  18 2.87  12 2.93   4 2.96  30 2.99   2 2.99  42 3.03   7 3.03
                            10 3.10  64 3.33   8 3.36  13 3.40  50 3.51
  63  0.869  0.592  0.458-  23 2.95  13 2.98   5 2.99  49 3.05   7 3.07  53 3.08  57 3.11  42 3.15
                            61 3.17  29 3.25  47 3.42  17 3.44  41 3.53
  64  0.862  0.147  0.641-  71 2.06  66 2.13  14 3.00  58 3.13  18 3.21   8 3.22  50 3.25  54 3.26
                            48 3.30  62 3.33  42 3.46
  65  0.385  0.881  0.631-  38 2.03  32 2.05  36 2.16  45 2.23  44 2.35
  66  0.983  0.239  0.677-  48 2.08  58 2.09  64 2.13
  67  0.258  0.126  0.636-  36 2.06  38 2.11  48 2.19  20 2.20  40 2.39
  68  0.988  0.659  0.655-  27 2.15  58 2.19  54 2.20  59 2.28
  69  0.269  0.536  0.665-  20 2.00  59 2.13  45 2.13
  70  0.403  0.292  0.667-  26 1.93  20 2.04  36 2.04
  71  0.740  0.046  0.667-   8 2.03  64 2.06  18 2.14
  72  0.529  0.055  0.667-  32 1.96  36 1.99  18 2.04
 
  LATTYP: Found a simple orthorhombic cell.
 ALAT       =     9.5644817352
 B/A-ratio  =     1.4398428730
 C/A-ratio  =     2.8922184390
  
  Lattice vectors:
  
 A1 = (   0.0000000000,  -9.5644817352,   0.0000000000)
 A2 = ( -13.7713508606,   0.0000000000,   0.0000000000)
 A3 = (   0.0000000000,   0.0000000000, -27.6625704340)


Analysis of symmetry for initial positions (statically):
=====================================================================
 Subroutine PRICEL returns:
 Original cell was already a primitive cell.
 

 Routine SETGRP: Setting up the symmetry group for a 
 simple orthorhombic supercell.


 Subroutine GETGRP returns: Found  1 space group operations
 (whereof  1 operations were pure point group operations)
 out of a pool of  8 trial point group operations.


The static configuration has the point symmetry C_1 .


Analysis of symmetry for dynamics (positions and initial velocities):
=====================================================================
 Subroutine PRICEL returns:
 Original cell was already a primitive cell.
 

 Routine SETGRP: Setting up the symmetry group for a 
 simple orthorhombic supercell.


 Subroutine GETGRP returns: Found  1 space group operations
 (whereof  1 operations were pure point group operations)
 out of a pool of  8 trial point group operations.


The dynamic configuration has the point symmetry C_1 .


Analysis of constrained symmetry for selective dynamics:
=====================================================================
 Subroutine PRICEL returns:
 Original cell was already a primitive cell.
 

 Routine SETGRP: Setting up the symmetry group for a 
 simple orthorhombic supercell.


 Subroutine GETGRP returns: Found  1 space group operations
 (whereof  1 operations were pure point group operations)
 out of a pool of  8 trial point group operations.


The constrained configuration has the point symmetry C_1 .


 Subroutine INISYM returns: Found  1 space group operations
 (whereof  1 operations are pure point group operations),
 and found     1 'primitive' translations

 
 
 KPOINTS: k-points                                

Automatic generation of k-mesh.
Space group operators:
 irot       det(A)        alpha          n_x          n_y          n_z        tau_x        tau_y        tau_z
    1     1.000000     0.000000     1.000000     0.000000     0.000000     0.000000     0.000000     0.000000
 
 Subroutine IBZKPT returns following result:
 ===========================================
 
 Found      5 irreducible k-points:
 
 Following reciprocal coordinates:
            Coordinates               Weight
  0.000000  0.000000  0.000000      1.000000
  0.333333  0.000000  0.000000      2.000000
  0.000000  0.333333  0.000000      2.000000
  0.333333  0.333333  0.000000      2.000000
 -0.333333  0.333333  0.000000      2.000000
 
 Following cartesian coordinates:
            Coordinates               Weight
  0.000000  0.000000  0.000000      1.000000
  0.024205  0.000000  0.000000      2.000000
  0.000000  0.034851  0.000000      2.000000
  0.024205  0.034851  0.000000      2.000000
 -0.024205  0.034851  0.000000      2.000000
 


--------------------------------------------------------------------------------------------------------




 Dimension of arrays:
   k-points           NKPTS =      5   k-points in BZ     NKDIM =      5   number of bands    NBANDS=    236
   number of dos      NEDOS =    301   number of ions     NIONS =     72
   non local maximal  LDIM  =      6   non local SUM 2l+1 LMDIM =     18
   total plane-waves  NPLWV = 846720
   max r-space proj   IRMAX =   4874   max aug-charges    IRDMAX=  25433
   dimension x,y,z NGX =    84 NGY =   60 NGZ =  168
   dimension x,y,z NGXF=   168 NGYF=  120 NGZF=  336
   support grid    NGXF=   168 NGYF=  120 NGZF=  336
   ions per type =               6  10   4  18  26   8
 NGX,Y,Z   is equivalent  to a cutoff of  10.14, 10.43, 10.10 a.u.
 NGXF,Y,Z  is equivalent  to a cutoff of  20.28, 20.86, 20.19 a.u.


 I would recommend the setting:
   dimension x,y,z NGX =    83 NGY =   57 NGZ =  166
 SYSTEM =  (110) surface                           
 POSCAR =  Al Nb Ta Ti Zr                          

 Startparameter for this run:
   NWRITE =      2    write-flag & timer
   PREC   = normal    normal or accurate (medium, high low for compatibility)
   ISTART =      0    job   : 0-new  1-cont  2-samecut
   ICHARG =      2    charge: 1-file 2-atom 10-const
   ISPIN  =      1    spin polarized calculation?
   LNONCOLLINEAR =      F non collinear calculations
   LSORBIT =      F    spin-orbit coupling
   INIWAV =      1    electr: 0-lowe 1-rand  2-diag
   LASPH  =      F    aspherical Exc in radial PAW
   METAGGA=      F    non-selfconsistent MetaGGA calc.

 Electronic Relaxation 1
   ENCUT  =  600.0 eV  44.10 Ry    6.64 a.u.  27.50 19.10 55.25*2*pi/ulx,y,z
   ENINI  =  600.0     initial cutoff
   ENAUG  =  605.4 eV  augmentation charge cutoff
   NELM   =     60;   NELMIN=  2; NELMDL= -5     # of ELM steps 
   EDIFF  = 0.1E-03   stopping-criterion for ELM
   LREAL  =      T    real-space projection
   NLSPLINE    = F    spline interpolate recip. space projectors
   LCOMPAT=      F    compatible to vasp.4.4
   GGA_COMPAT  = T    GGA compatible to vasp.4.4-vasp.4.6
   LMAXPAW     = -100 max onsite density
   LMAXMIX     =    2 max onsite mixed and CHGCAR
   VOSKOWN=      0    Vosko Wilk Nusair interpolation
   ROPT   =   -0.00050  -0.00050  -0.00050  -0.00050
   ROPT   =   -0.00050  -0.00050
 Ionic relaxation
   EDIFFG = -.1E-01   stopping-criterion for IOM
   NSW    =      0    number of steps for IOM
   NBLOCK =      1;   KBLOCK =      1    inner block; outer block 
   IBRION =     -1    ionic relax: 0-MD 1-quasi-New 2-CG
   NFREE  =      0    steps in history (QN), initial steepest desc. (CG)
   ISIF   =      2    stress and relaxation
   IWAVPR =     10    prediction:  0-non 1-charg 2-wave 3-comb
   ISYM   =      2    0-nonsym 1-usesym 2-fastsym
   LCORR  =      T    Harris-Foulkes like correction to forces

   POTIM  = 0.1000    time-step for ionic-motion
   TEIN   =    0.0    initial temperature
   TEBEG  =    0.0;   TEEND  =   0.0 temperature during run
   SMASS  =  -3.00    Nose mass-parameter (am)
   estimated Nose-frequenzy (Omega)   =  0.10E-29 period in steps =****** mass=  -0.433E-26a.u.
   SCALEE = 1.0000    scale energy and forces
   NPACO  =    256;   APACO  = 16.0  distance and # of slots for P.C.
   PSTRESS=    0.0 pullay stress

  Mass of Ions in am
   POMASS =  26.98 92.91180.95 47.88 91.22 16.00
  Ionic Valenz
   ZVAL   =   3.00 13.00  5.00  4.00  4.00  6.00
  Atomic Wigner-Seitz radii
   RWIGS  =  -1.00 -1.00 -1.00 -1.00 -1.00 -1.00
  virtual crystal weights 
   VCA    =   1.00  1.00  1.00  1.00  1.00  1.00
   NELECT =     392.0000    total number of electrons
   NUPDOWN=      -1.0000    fix difference up-down

 DOS related values:
   EMIN   =  10.00;   EMAX   =-10.00  energy-range for DOS
   EFERMI =   0.00
   ISMEAR =     2;   SIGMA  =   0.10  broadening in eV -4-tet -1-fermi 0-gaus

 Electronic relaxation 2 (details)
   IALGO  =     68    algorithm
   LDIAG  =      T    sub-space diagonalisation (order eigenvalues)
   LSUBROT=      F    optimize rotation matrix (better conditioning)
   TURBO    =      0    0=normal 1=particle mesh
   IRESTART =      0    0=no restart 2=restart with 2 vectors
   NREBOOT  =      0    no. of reboots
   NMIN     =      0    reboot dimension
   EREF     =   0.00    reference energy to select bands
   IMIX   =      4    mixing-type and parameters
     AMIX     =   0.40;   BMIX     =  1.00
     AMIX_MAG =   1.60;   BMIX_MAG =  1.00
     AMIN     =   0.10
     WC   =   100.;   INIMIX=   1;  MIXPRE=   1;  MAXMIX= -45

 Intra band minimization:
   WEIMIN = 0.0000     energy-eigenvalue tresh-hold
   EBREAK =  0.11E-06  absolut break condition
   DEPER  =   0.30     relativ break condition  

   TIME   =   0.40     timestep for ELM

  volume/ion in A,a.u.               =      50.61       341.50
  Fermi-wavevector in a.u.,A,eV,Ry     =   0.778622  1.471382  8.248563  0.606252
  Thomas-Fermi vector in A             =   1.881556
 
 Write flags
   LWAVE  =      F    write WAVECAR
   LCHARG =      F    write CHGCAR
   LVTOT  =      F    write LOCPOT, total local potential
   LVHAR  =      T    write LOCPOT, Hartree potential only
   LELF   =      F    write electronic localiz. function (ELF)
   LORBIT =      0    0 simple, 1 ext, 2 COOP (PROOUT)


 Dipole corrections
   LMONO  =      F    monopole corrections only (constant potential shift)
   LDIPOL =      F    correct potential (dipole corrections)
   IDIPOL =      0    1-x, 2-y, 3-z, 4-all directions 
   EPSILON=  1.0000000 bulk dielectric constant

 Exchange correlation treatment:
   GGA     =    --    GGA type
   LEXCH   =     8    internal setting for exchange type
   VOSKOWN=      0    Vosko Wilk Nusair interpolation
   LHFCALC =     F    Hartree Fock is set to
   LHFONE  =     F    Hartree Fock one center treatment
   AEXX    =    0.0000 exact exchange contribution

 Linear response parameters
   LEPSILON=     F    determine dielectric tensor
   LRPA    =     F    only Hartree local field effects (RPA)
   LNABLA  =     F    use nabla operator in PAW spheres
   LVEL    =     F    velocity operator in full k-point grid
   LINTERFAST=   F  fast interpolation
   KINTER  =     0    interpolate to denser k-point grid
   CSHIFT  =0.1000    complex shift for real part using Kramers Kronig
   OMEGAMAX=  -1.0    maximum frequency
   DEG_THRESHOLD= 0.2000000E-02 threshold for treating states as degnerate
   RTIME   =    0.100 relaxation time in fs

 Orbital magnetization related:
   ORBITALMAG=     F  switch on orbital magnetization
   LCHIMAG   =     F  perturbation theory with respect to B field
   DQ        =  0.001000  dq finite difference perturbation B field



--------------------------------------------------------------------------------------------------------


 Static calculation
 charge density and potential will be updated during run
 non-spin polarized calculation
 RMM-DIIS sequential band-by-band and
  variant of blocked Davidson during initial phase
 perform sub-space diagonalisation
    before iterative eigenvector-optimisation
 modified Broyden-mixing scheme, WC =      100.0
 initial mixing is a Kerker type mixing with AMIX =  0.4000 and BMIX =      1.0000
 Hartree-type preconditioning will be used
 using additional bands           40
 real space projection scheme for non local part
 use partial core corrections
 calculate Harris-corrections to forces 
   (improved forces if not selfconsistent)
 use gradient corrections 
 use of overlap-Matrix (Vanderbilt PP)
 Methfessel and Paxton  Order N= 2 SIGMA  =   0.10


--------------------------------------------------------------------------------------------------------


  energy-cutoff  :      600.00
  volume of cell :     3643.60
      direct lattice vectors                 reciprocal lattice vectors
    13.771350861  0.000000000  0.000000000     0.072614518  0.000000000  0.000000000
     0.000000000  9.564481735  0.000000000     0.000000000  0.104553496  0.000000000
     0.000000000  0.000000000 27.662570434     0.000000000  0.000000000  0.036149931

  length of vectors
    13.771350861  9.564481735 27.662570434     0.072614518  0.104553496  0.036149931


 
 k-points in units of 2pi/SCALE and weight: k-points                                
   0.00000000  0.00000000  0.00000000       0.111
   0.02420484  0.00000000  0.00000000       0.222
   0.00000000  0.03485117  0.00000000       0.222
   0.02420484  0.03485117  0.00000000       0.222
  -0.02420484  0.03485117  0.00000000       0.222
 
 k-points in reciprocal lattice and weights: k-points                                
   0.00000000  0.00000000  0.00000000       0.111
   0.33333333  0.00000000  0.00000000       0.222
   0.00000000  0.33333333  0.00000000       0.222
   0.33333333  0.33333333  0.00000000       0.222
  -0.33333333  0.33333333  0.00000000       0.222
 
 position of ions in fractional coordinates (direct lattice) 
   0.62276447  0.86746430  0.37590333
   0.62406859  0.38845513  0.54754914
   0.61521256  0.62936006  0.62699085
   0.61839700  0.08363760  0.44965952
   0.98073196  0.63624499  0.54984394
   0.97963780  0.12056648  0.37767599
   0.72857308  0.34338307  0.45816820
   0.72695731  0.87643152  0.62318283
   0.51739597  0.60805875  0.36719826
   0.51366927  0.13508692  0.54126781
   0.61811078  0.34297293  0.36889183
   0.61897393  0.87087898  0.53720571
   0.74231148  0.84345710  0.46199300
   0.74719654  0.40988770  0.62722736
   0.39405298  0.84738672  0.36896032
   0.38995394  0.36948732  0.54552217
   0.61928761  0.60162497  0.45752798
   0.63132733  0.15251671  0.62541147
   0.27944195  0.83362269  0.45088327
   0.28055539  0.35290436  0.63129388
   0.28101958  0.59602034  0.53650164
   0.28324246  0.07725573  0.36149931
   0.73675531  0.63215976  0.54093433
   0.74002355  0.11549973  0.36646499
   0.49591756  0.83582580  0.45790018
   0.50185111  0.38131887  0.62857112
   0.84209284  0.64898108  0.62846343
   0.84724605  0.11017048  0.45460239
   0.85243583  0.34907103  0.37639265
   0.85356598  0.86217222  0.55101487
   0.52175105  0.33942658  0.46105252
   0.53325025  0.88479596  0.62719987
   0.49839015  0.62112146  0.53900329
   0.49943882  0.10200214  0.36464270
   0.40016663  0.58028412  0.45130253
   0.40724251  0.10407589  0.63199845
   0.25505811  0.36595738  0.46399110
   0.23951016  0.90936291  0.62456072
   0.25182599  0.61397660  0.37627308
   0.25300754  0.13796728  0.54927220
   0.86539888  0.85904646  0.37036829
   0.86494979  0.38268850  0.54594066
   0.38059813  0.35186696  0.37331264
   0.37976711  0.87193596  0.54610423
   0.38328164  0.64788155  0.63035889
   0.38408008  0.10357511  0.45579618
   0.11657381  0.61110574  0.46457054
   0.10181250  0.16496844  0.63758770
   0.99629861  0.59295863  0.36811234
   0.99343664  0.11508883  0.54344926
   0.11869311  0.87196302  0.37467704
   0.11964116  0.39354724  0.55596724
   0.99977952  0.33051389  0.45306987
   0.99791116  0.87125646  0.62519237
   0.14482272  0.33176249  0.36788561
   0.13599921  0.84644643  0.54133067
   0.97888047  0.87608504  0.46520830
   0.97093256  0.43416114  0.64270222
   0.14543308  0.62875583  0.63196032
   0.14721048  0.09173214  0.45072276
   0.73135245  0.60578495  0.36679988
   0.73876565  0.12448330  0.53724322
   0.86923259  0.59196168  0.45825814
   0.86235799  0.14658606  0.64061386
   0.38475444  0.88054037  0.63099681
   0.98315699  0.23899260  0.67651722
   0.25831296  0.12573433  0.63550323
   0.98845042  0.65898247  0.65543928
   0.26911276  0.53638365  0.66522511
   0.40284044  0.29174378  0.66718132
   0.74030200  0.04640512  0.66658635
   0.52894816  0.05545523  0.66667436
 
 position of ions in cartesian coordinates  (Angst):
   8.57630799  8.29684649 10.39845223
   8.59426752  3.71537200 15.14661662
   8.47230804  6.01950284 17.34417846
   8.51616202  0.79995025 12.43873821
  13.50600395  6.08535360 15.21009671
  13.49093588  1.15315590 10.44748880
  10.03343557  3.28428114 12.67411000
  10.01118424  8.38261329 17.23883899
   7.12524148  5.81576681 10.15764776
   7.07391973  1.29203641 14.97285891
   8.51222037  3.28035836 10.20449636
   8.52410722  8.32950612 14.86049088
  10.22263181  8.06723005 12.77991378
  10.28990567  3.92036337 17.35072099
   5.42664188  8.10481479 10.20639088
   5.37019251  3.53395474 15.09054558
   8.52842696  5.75423100 12.65640004
   8.69423012  1.45874329 17.30048897
   3.84829318  7.97316903 12.47259035
   3.86362665  3.37534732 17.46321150
   3.87001924  5.70062569 14.84101433
   3.90063135  0.73891098 10.00000000
  10.14611588  6.04628044 14.96363393
  10.19112400  1.10469510 10.13736353
   6.82945470  7.99424061 12.66669595
   6.91116777  3.64711733 17.38789302
  11.59675597  6.20716766 17.38491384
  11.66772263  1.05372358 12.57547056
  11.73919286  3.33868345 10.41198829
  11.75475658  8.24623043 15.24248757
   7.18521672  3.24643930 12.75389771
   7.34357625  8.46261478 17.34996062
   6.86350562  5.94070488 14.91021640
   6.87794726  0.97559764 10.08695433
   5.51083508  5.55011685 12.48418803
   5.60827955  0.99543194 17.48270151
   3.51249472  3.50019267 12.83518635
   3.29837840  8.69758494 17.27695489
   3.46798404  5.87236796 10.40868071
   3.48425555  1.31958555 15.19428088
  11.91771166  8.21633417 10.24533883
  11.91152700  3.66021715 15.10212201
   5.24135036  3.36542512 10.32678719
   5.22990614  8.33961557 15.10664686
   5.27830597  6.19665121 17.43734715
   5.28930157  0.99064225 12.60849381
   1.60537885  5.84490969 12.85121538
   1.40209572  1.57783764 17.63731457
  13.72037774  5.67134198 10.18293350
  13.68096449  1.10076497 15.03320336
   1.63456451  8.33987442 10.36453009
   1.64762041  3.76407536 15.37948303
  13.76831459  3.16119411 12.53307716
  13.74258472  8.33311651 17.29442788
   1.99440444  3.17313630 10.17666150
   1.87289277  8.09582146 14.97459775
  13.48050634  8.37929939 12.86885734
  13.37105293  4.15252633 17.77879542
   2.00281002  6.01372364 17.48164695
   2.02728715  0.87737042 12.46815015
  10.07171117  5.79401911 10.14662739
  10.17380096  1.19061825 14.86152830
  11.97050705  5.66180669 12.67659812
  11.87583445  1.40201966 17.72102594
   5.29858834  8.42191232 17.45499378
  13.53939991  2.28584037 18.71420530
   3.55731843  1.20258374 17.57965291
  13.61229760  6.30282575 18.13113537
   3.70604619  5.13023164 18.40183646
   5.54765704  2.79037809 18.45595032
  10.19495852  0.44384097 18.43949190
   7.28433070  0.53040054 18.44192640
 


--------------------------------------------------------------------------------------------------------


 k-point  1 :   0.0000 0.0000 0.0000  plane waves:  121663
 k-point  2 :   0.3333 0.0000 0.0000  plane waves:  121577
 k-point  3 :   0.0000 0.3333 0.0000  plane waves:  121622
 k-point  4 :   0.3333 0.3333 0.0000  plane waves:  121647
 k-point  5 :  -0.3333 0.3333 0.0000  plane waves:  121647

 maximum and minimum number of plane-waves per node :      5107     5041

 maximum number of plane-waves:    121663
 maximum index in each direction: 
   IXMAX=   27   IYMAX=   19   IZMAX=   55
   IXMIN=  -27   IYMIN=  -19   IZMIN=  -55

 WARNING: aliasing errors must be expected set NGX to 110 to avoid them
 WARNING: aliasing errors must be expected set NGY to  78 to avoid them
 WARNING: aliasing errors must be expected set NGZ to 222 to avoid them
 aliasing errors are usually negligible using standard VASP settings
 and one can safely disregard these warnings

 real space projection operators:
  total allocation   :      30005.65 KBytes
  max/ min on nodes  :       1445.38       1023.96


 parallel 3D FFT for wavefunctions:
    minimum data exchange during FFTs selected (reduces bandwidth)
 parallel 3D FFT for charge:
    minimum data exchange during FFTs selected (reduces bandwidth)


 total amount of memory used by VASP on root node    74445. kBytes
========================================================================

   base      :      30000. kBytes
   nonlr-proj:       7577. kBytes
   fftplans  :       3890. kBytes
   grid      :       8747. kBytes
   one-center:         46. kBytes
   wavefun   :      24185. kBytes
 
     INWAV:  cpu time    0.0000: real time    0.0000
 Broyden mixing: mesh for mixing (old mesh)
   NGX = 55   NGY = 39   NGZ =111
  (NGX  =168   NGY  =120   NGZ  =336)
  gives a total of 238095 points

 initial charge density was supplied:
 charge density of overlapping atoms calculated
 number of electron     392.0000000 magnetization 
 keeping initial charge density in first step


--------------------------------------------------------------------------------------------------------


 Maximum index for non-local projection operator          368
 Maximum index for augmentation-charges         1033 (set IRDMAX)


--------------------------------------------------------------------------------------------------------


 First call to EWALD:  gamma=   0.115
 Maximum number of real-space cells 3x 4x 2
 Maximum number of reciprocal cells 3x 2x 5

 FEWALD executed in parallel
    FEWALD:  cpu time    0.0021: real time    0.0021


----------------------------------------- Iteration    1(   1)  ---------------------------------------


    POTLOK:  cpu time    0.0596: real time    0.0611
    SETDIJ:  cpu time    0.0131: real time    0.0131
     EDDAV:  cpu time    5.5317: real time    5.5444
       DOS:  cpu time    0.0009: real time    0.0009
    --------------------------------------------
      LOOP:  cpu time    5.6083: real time    5.6238

 eigenvalue-minimisations  :  2504
 total energy-change (2. order) : 0.4638574E+04  (-0.1455137E+05)
 number of electron     392.0000000 magnetization 
 augmentation part      392.0000000 magnetization 

 Free energy of the ion-electron system (eV)
  ---------------------------------------------------
  alpha Z        PSCENC =       598.31354144
  Ewald energy   TEWEN  =     83222.22793603
  -Hartree energ DENC   =   -104407.72962749
  -exchange      EXHF   =         0.00000000
  -V(xc)+E(xc)   XCENC  =     -2866.27850899
  PAW double counting   =     22211.67693829   -18134.83252436
  entropy T*S    EENTRO =         0.01090505
  eigenvalues    EBANDS =       430.28732395
  atomic energy  EATOM  =     23584.89840433
  Solvation  Ediel_sol  =         0.00000000
  ---------------------------------------------------
  free energy    TOTEN  =      4638.57438825 eV

  energy without entropy =     4638.56348320  energy(sigma->0) =     4638.57166199


--------------------------------------------------------------------------------------------------------




----------------------------------------- Iteration    1(   2)  ---------------------------------------


     EDDAV:  cpu time    5.6103: real time    5.6103
       DOS:  cpu time    0.0009: real time    0.0009
    --------------------------------------------
      LOOP:  cpu time    5.6123: real time    5.6184

 eigenvalue-minimisations  :  2580
 total energy-change (2. order) :-0.4138219E+04  (-0.4013997E+04)
 number of electron     392.0000000 magnetization 
 augmentation part      392.0000000 magnetization 

 Free energy of the ion-electron system (eV)
  ---------------------------------------------------
  alpha Z        PSCENC =       598.31354144
  Ewald energy   TEWEN  =     83222.22793603
  -Hartree energ DENC   =   -104407.72962749
  -exchange      EXHF   =         0.00000000
  -V(xc)+E(xc)   XCENC  =     -2866.27850899
  PAW double counting   =     22211.67693829   -18134.83252436
  entropy T*S    EENTRO =        -0.00124330
  eigenvalues    EBANDS =     -3707.91953177
  atomic energy  EATOM  =     23584.89840433
  Solvation  Ediel_sol  =         0.00000000
  ---------------------------------------------------
  free energy    TOTEN  =       500.35538418 eV

  energy without entropy =      500.35662748  energy(sigma->0) =      500.35569501


--------------------------------------------------------------------------------------------------------




----------------------------------------- Iteration    1(   3)  ---------------------------------------


     EDDAV:  cpu time    8.5854: real time    8.5855
       DOS:  cpu time    0.0009: real time    0.0009
    --------------------------------------------
      LOOP:  cpu time    8.5873: real time    8.5933

 eigenvalue-minimisations  :  4384
 total energy-change (2. order) :-0.1014484E+04  (-0.9852558E+03)
 number of electron     392.0000000 magnetization 
 augmentation part      392.0000000 magnetization 

 Free energy of the ion-electron system (eV)
  ---------------------------------------------------
  alpha Z        PSCENC =       598.31354144
  Ewald energy   TEWEN  =     83222.22793603
  -Hartree energ DENC   =   -104407.72962749
  -exchange      EXHF   =         0.00000000
  -V(xc)+E(xc)   XCENC  =     -2866.27850899
  PAW double counting   =     22211.67693829   -18134.83252436
  entropy T*S    EENTRO =        -0.00343448
  eigenvalues    EBANDS =     -4722.40139660
  atomic energy  EATOM  =     23584.89840433
  Solvation  Ediel_sol  =         0.00000000
  ---------------------------------------------------
  free energy    TOTEN  =      -514.12867183 eV

  energy without entropy =     -514.12523735  energy(sigma->0) =     -514.12781321


--------------------------------------------------------------------------------------------------------




----------------------------------------- Iteration    1(   4)  ---------------------------------------


     EDDAV:  cpu time    7.4463: real time    7.4464
       DOS:  cpu time    0.0009: real time    0.0008
    --------------------------------------------
      LOOP:  cpu time    7.4485: real time    7.4536

 eigenvalue-minimisations  :  3696
 total energy-change (2. order) :-0.1423478E+03  (-0.1375457E+03)
 number of electron     392.0000000 magnetization 
 augmentation part      392.0000000 magnetization 

 Free energy of the ion-electron system (eV)
  ---------------------------------------------------
  alpha Z        PSCENC =       598.31354144
  Ewald energy   TEWEN  =     83222.22793603
  -Hartree energ DENC   =   -104407.72962749
  -exchange      EXHF   =         0.00000000
  -V(xc)+E(xc)   XCENC  =     -2866.27850899
  PAW double counting   =     22211.67693829   -18134.83252436
  entropy T*S    EENTRO =        -0.00341995
  eigenvalues    EBANDS =     -4864.74916396
  atomic energy  EATOM  =     23584.89840433
  Solvation  Ediel_sol  =         0.00000000
  ---------------------------------------------------
  free energy    TOTEN  =      -656.47642465 eV

  energy without entropy =     -656.47300471  energy(sigma->0) =     -656.47556967


--------------------------------------------------------------------------------------------------------




----------------------------------------- Iteration    1(   5)  ---------------------------------------


     EDDAV:  cpu time    8.6493: real time    8.6495
       DOS:  cpu time    0.0009: real time    0.0009
    CHARGE:  cpu time    0.1704: real time    0.1708
    MIXING:  cpu time    0.0059: real time    0.0068
    --------------------------------------------
      LOOP:  cpu time    8.8276: real time    8.8358

 eigenvalue-minimisations  :  4424
 total energy-change (2. order) :-0.1611692E+02  (-0.1574772E+02)
 number of electron     391.9999999 magnetization 
 augmentation part       46.7370242 magnetization 

 Broyden mixing:
  rms(total) = 0.69386E+01    rms(broyden)= 0.69385E+01
  rms(prec ) = 0.74518E+01
  weight for this iteration     100.00

 Free energy of the ion-electron system (eV)
  ---------------------------------------------------
  alpha Z        PSCENC =       598.31354144
  Ewald energy   TEWEN  =     83222.22793603
  -Hartree energ DENC   =   -104407.72962749
  -exchange      EXHF   =         0.00000000
  -V(xc)+E(xc)   XCENC  =     -2866.27850899
  PAW double counting   =     22211.67693829   -18134.83252436
  entropy T*S    EENTRO =        -0.00262294
  eigenvalues    EBANDS =     -4880.86688083
  atomic energy  EATOM  =     23584.89840433
  Solvation  Ediel_sol  =         0.00000000
  ---------------------------------------------------
  free energy    TOTEN  =      -672.59334452 eV

  energy without entropy =     -672.59072158  energy(sigma->0) =     -672.59268878


--------------------------------------------------------------------------------------------------------




----------------------------------------- Iteration    1(   6)  ---------------------------------------


    POTLOK:  cpu time    0.0520: real time    0.0520
    SETDIJ:  cpu time    0.0067: real time    0.0067
    EDDIAG:  cpu time    0.8568: real time    0.8574
  RMM-DIIS:  cpu time    4.5478: real time    4.5478
    ORTHCH:  cpu time    0.2512: real time    0.2512
       DOS:  cpu time    0.0009: real time    0.0009
    CHARGE:  cpu time    0.1677: real time    0.1677
    MIXING:  cpu time    0.0031: real time    0.0032
    --------------------------------------------
      LOOP:  cpu time    5.8877: real time    5.8946

 eigenvalue-minimisations  :  4052
 total energy-change (2. order) :-0.4558253E+02  (-0.1490906E+03)
 number of electron     391.9999999 magnetization 
 augmentation part       61.7699520 magnetization 

 Broyden mixing:
  rms(total) = 0.44678E+01    rms(broyden)= 0.44676E+01
  rms(prec ) = 0.58596E+01
  weight for this iteration     100.00

 eigenvalues of (default mixing * dielectric matrix)
  average eigenvalue GAMMA=   0.7577
  0.7577

 Free energy of the ion-electron system (eV)
  ---------------------------------------------------
  alpha Z        PSCENC =       598.31354144
  Ewald energy   TEWEN  =     83222.22793603
  -Hartree energ DENC   =   -105166.43666111
  -exchange      EXHF   =         0.00000000
  -V(xc)+E(xc)   XCENC  =     -2843.80823148
  PAW double counting   =     26271.28926077   -22197.88636052
  entropy T*S    EENTRO =        -0.02137674
  eigenvalues    EBANDS =     -4186.75238454
  atomic energy  EATOM  =     23584.89840433
  Solvation  Ediel_sol  =         0.00000000
  ---------------------------------------------------
  free energy    TOTEN  =      -718.17587183 eV

  energy without entropy =     -718.15449509  energy(sigma->0) =     -718.17052764


--------------------------------------------------------------------------------------------------------




----------------------------------------- Iteration    1(   7)  ---------------------------------------


    POTLOK:  cpu time    0.0500: real time    0.0500
    SETDIJ:  cpu time    0.0064: real time    0.0064
    EDDIAG:  cpu time    0.8491: real time    0.8491
  RMM-DIIS:  cpu time    3.2613: real time    3.2614
    ORTHCH:  cpu time    0.2501: real time    0.2501
       DOS:  cpu time    0.0009: real time    0.0009
    CHARGE:  cpu time    0.1662: real time    0.1662
    MIXING:  cpu time    0.0018: real time    0.0018
    --------------------------------------------
      LOOP:  cpu time    4.5873: real time    4.5936

 eigenvalue-minimisations  :  2874
 total energy-change (2. order) : 0.6527649E+02  (-0.3434574E+02)
 number of electron     392.0000008 magnetization 
 augmentation part       56.0854248 magnetization 

 Broyden mixing:
  rms(total) = 0.37637E+01    rms(broyden)= 0.37637E+01
  rms(prec ) = 0.62486E+01
  weight for this iteration     100.00

 eigenvalues of (default mixing * dielectric matrix)
  average eigenvalue GAMMA=   0.6982
  1.0473  0.3491

 Free energy of the ion-electron system (eV)
  ---------------------------------------------------
  alpha Z        PSCENC =       598.31354144
  Ewald energy   TEWEN  =     83222.22793603
  -Hartree energ DENC   =   -104699.25584970
  -exchange      EXHF   =         0.00000000
  -V(xc)+E(xc)   XCENC  =     -2846.69793506
  PAW double counting   =     26830.84822220   -22769.89847374
  entropy T*S    EENTRO =        -0.00737548
  eigenvalues    EBANDS =     -4573.32785630
  atomic energy  EATOM  =     23584.89840433
  Solvation  Ediel_sol  =         0.00000000
  ---------------------------------------------------
  free energy    TOTEN  =      -652.89938627 eV

  energy without entropy =     -652.89201079  energy(sigma->0) =     -652.89754240


--------------------------------------------------------------------------------------------------------




----------------------------------------- Iteration    1(   8)  ---------------------------------------


    POTLOK:  cpu time    0.0499: real time    0.0499
    SETDIJ:  cpu time    0.0064: real time    0.0064
    EDDIAG:  cpu time    0.8521: real time    0.8521
  RMM-DIIS:  cpu time    4.5697: real time    4.5697
    ORTHCH:  cpu time    0.2498: real time    0.2498
       DOS:  cpu time    0.0009: real time    0.0009
    CHARGE:  cpu time    0.1671: real time    0.1671
    MIXING:  cpu time    0.0019: real time    0.0019
    --------------------------------------------
      LOOP:  cpu time    5.8993: real time    5.9057

 eigenvalue-minimisations  :  4066
 total energy-change (2. order) :-0.7139181E+00  (-0.1937389E+02)
 number of electron     392.0000002 magnetization 
 augmentation part       51.7554607 magnetization 

 Broyden mixing:
  rms(total) = 0.33776E+01    rms(broyden)= 0.33776E+01
  rms(prec ) = 0.59972E+01
  weight for this iteration     100.00

 eigenvalues of (default mixing * dielectric matrix)
  average eigenvalue GAMMA=   0.6417
  1.2885  0.4230  0.2135

 Free energy of the ion-electron system (eV)
  ---------------------------------------------------
  alpha Z        PSCENC =       598.31354144
  Ewald energy   TEWEN  =     83222.22793603
  -Hartree energ DENC   =   -104875.18162418
  -exchange      EXHF   =         0.00000000
  -V(xc)+E(xc)   XCENC  =     -2846.84286785
  PAW double counting   =     27636.40409576   -23578.21423291
  entropy T*S    EENTRO =        -0.00157650
  eigenvalues    EBANDS =     -4395.21698051
  atomic energy  EATOM  =     23584.89840433
  Solvation  Ediel_sol  =         0.00000000
  ---------------------------------------------------
  free energy    TOTEN  =      -653.61330439 eV

  energy without entropy =     -653.61172790  energy(sigma->0) =     -653.61291027


--------------------------------------------------------------------------------------------------------




----------------------------------------- Iteration    1(   9)  ---------------------------------------


    POTLOK:  cpu time    0.0497: real time    0.0497
    SETDIJ:  cpu time    0.0064: real time    0.0064
    EDDIAG:  cpu time    0.8616: real time    0.8616
  RMM-DIIS:  cpu time    4.3338: real time    4.3339
    ORTHCH:  cpu time    0.2501: real time    0.2501
       DOS:  cpu time    0.0009: real time    0.0009
    CHARGE:  cpu time    0.1674: real time    0.1674
    MIXING:  cpu time    0.0020: real time    0.0020
    --------------------------------------------
      LOOP:  cpu time    5.6736: real time    5.6799

 eigenvalue-minimisations  :  3849
 total energy-change (2. order) : 0.5499400E+02  (-0.6789973E+01)
 number of electron     392.0000000 magnetization 
 augmentation part       50.3855943 magnetization 

 Broyden mixing:
  rms(total) = 0.19864E+01    rms(broyden)= 0.19864E+01
  rms(prec ) = 0.22766E+01
  weight for this iteration     100.00

 eigenvalues of (default mixing * dielectric matrix)
  average eigenvalue GAMMA=   0.6521
  1.5454  0.4410  0.4410  0.1811

 Free energy of the ion-electron system (eV)
  ---------------------------------------------------
  alpha Z        PSCENC =       598.31354144
  Ewald energy   TEWEN  =     83222.22793603
  -Hartree energ DENC   =   -104893.91848713
  -exchange      EXHF   =         0.00000000
  -V(xc)+E(xc)   XCENC  =     -2844.81739485
  PAW double counting   =     28389.14738572   -24327.30927564
  entropy T*S    EENTRO =        -0.00266180
  eigenvalues    EBANDS =     -4327.15875562
  atomic energy  EATOM  =     23584.89840433
  Solvation  Ediel_sol  =         0.00000000
  ---------------------------------------------------
  free energy    TOTEN  =      -598.61930752 eV

  energy without entropy =     -598.61664572  energy(sigma->0) =     -598.61864207


--------------------------------------------------------------------------------------------------------




----------------------------------------- Iteration    1(  10)  ---------------------------------------


    POTLOK:  cpu time    0.0502: real time    0.0502
    SETDIJ:  cpu time    0.0066: real time    0.0066
    EDDIAG:  cpu time    0.8646: real time    0.8646
  RMM-DIIS:  cpu time    4.1453: real time    4.1453
    ORTHCH:  cpu time    0.2500: real time    0.2503
       DOS:  cpu time    0.0009: real time    0.0009
    CHARGE:  cpu time    0.1664: real time    0.1664
    MIXING:  cpu time    0.0022: real time    0.0022
    --------------------------------------------
      LOOP:  cpu time    5.4878: real time    5.4950

 eigenvalue-minimisations  :  3684
 total energy-change (2. order) : 0.8212115E+01  (-0.3551333E+01)
 number of electron     392.0000003 magnetization 
 augmentation part       53.5290519 magnetization 

 Broyden mixing:
  rms(total) = 0.10648E+01    rms(broyden)= 0.10648E+01
  rms(prec ) = 0.12724E+01
  weight for this iteration     100.00

 eigenvalues of (default mixing * dielectric matrix)
  average eigenvalue GAMMA=   0.6909
  1.7569  0.5936  0.5936  0.3315  0.1787

 Free energy of the ion-electron system (eV)
  ---------------------------------------------------
  alpha Z        PSCENC =       598.31354144
  Ewald energy   TEWEN  =     83222.22793603
  -Hartree energ DENC   =   -104926.56597445
  -exchange      EXHF   =         0.00000000
  -V(xc)+E(xc)   XCENC  =     -2840.96689415
  PAW double counting   =     29040.81950037   -24972.76698871
  entropy T*S    EENTRO =         0.00199532
  eigenvalues    EBANDS =     -4296.36871282
  atomic energy  EATOM  =     23584.89840433
  Solvation  Ediel_sol  =         0.00000000
  ---------------------------------------------------
  free energy    TOTEN  =      -590.40719264 eV

  energy without entropy =     -590.40918796  energy(sigma->0) =     -590.40769147


--------------------------------------------------------------------------------------------------------




----------------------------------------- Iteration    1(  11)  ---------------------------------------


    POTLOK:  cpu time    0.0501: real time    0.0501
    SETDIJ:  cpu time    0.0064: real time    0.0064
    EDDIAG:  cpu time    0.8684: real time    0.8684
  RMM-DIIS:  cpu time    4.4650: real time    4.4651
    ORTHCH:  cpu time    0.2502: real time    0.2502
       DOS:  cpu time    0.0010: real time    0.0010
    CHARGE:  cpu time    0.1650: real time    0.1651
    MIXING:  cpu time    0.0022: real time    0.0022
    --------------------------------------------
      LOOP:  cpu time    5.8100: real time    5.8161

 eigenvalue-minimisations  :  3968
 total energy-change (2. order) :-0.1581369E+01  (-0.2885000E+01)
 number of electron     392.0000003 magnetization 
 augmentation part       54.7894618 magnetization 

 Broyden mixing:
  rms(total) = 0.11378E+01    rms(broyden)= 0.11378E+01
  rms(prec ) = 0.15520E+01
  weight for this iteration     100.00

 eigenvalues of (default mixing * dielectric matrix)
  average eigenvalue GAMMA=   0.6595
  1.8301  0.6792  0.6432  0.3659  0.1794  0.2595

 Free energy of the ion-electron system (eV)
  ---------------------------------------------------
  alpha Z        PSCENC =       598.31354144
[...]
    FORHAR:  cpu time    0.0333: real time    0.0335
    MIXING:  cpu time    0.0068: real time    0.0068
    OFIELD:  cpu time    0.0003: real time    0.0004

  FORCE on cell =-STRESS in cart. coord.  units (eV):
  Direction    XX          YY          ZZ          XY          YZ          ZX
  --------------------------------------------------------------------------------------
  Alpha Z   598.31354   598.31354   598.31354
  Ewald   90743.69472 95578.04222************  -895.21248   200.64965   278.48265
  Hartree 95899.69542100514.55475-91288.88038  -752.10878   141.29492   255.45801
  E(xc)   -1687.71648 -1688.86370 -1677.00226    -0.25470    -0.79336     0.93136
  Local  ************************190045.58728  1646.68833  -337.20024  -535.26375
  n-local  -184.14862  -184.36953  -222.53521     8.86810     2.03525     0.09251
  augment   488.60888   489.21242   485.84982    -1.52015    -0.53184     0.16665
  Kinetic  5096.60721  5090.26915  5142.01809   -11.44553    -0.08095    -0.75491
  Fock        0.00000     0.00000     0.00000     0.00000     0.00000     0.00000
  -------------------------------------------------------------------------------------
  Total     -34.14160   -21.80645   -16.24321    -4.98521     5.37344    -0.88747
  in kB     -15.01288    -9.58882    -7.14253    -2.19212     2.36283    -0.39024
  external pressure =      -10.58 kB  Pullay stress =        0.00 kB


 VOLUME and BASIS-vectors are now :
 -----------------------------------------------------------------------------
  energy-cutoff  :      600.00
  volume of cell :     3643.60
      direct lattice vectors                 reciprocal lattice vectors
    13.771350861  0.000000000  0.000000000     0.072614518  0.000000000  0.000000000
     0.000000000  9.564481735  0.000000000     0.000000000  0.104553496  0.000000000
     0.000000000  0.000000000 27.662570434     0.000000000  0.000000000  0.036149931

  length of vectors
    13.771350861  9.564481735 27.662570434     0.072614518  0.104553496  0.036149931


 FORCES acting on ions
    electron-ion (+dipol)            ewald-force                    non-local-force                 convergence-correction
 -----------------------------------------------------------------------------------------------
   -.475E+02 -.339E+02 0.411E+03   0.473E+02 0.336E+02 -.410E+03   0.834E-01 0.822E-01 -.815E+00   -.102E-02 0.118E-02 0.126E-03
   -.239E+02 -.387E+02 -.846E+02   0.241E+02 0.385E+02 0.848E+02   -.182E+00 0.262E+00 -.177E+00   -.322E-03 -.127E-03 -.432E-03
   0.302E+02 0.279E+02 -.350E+03   -.299E+02 -.275E+02 0.349E+03   -.308E+00 -.438E+00 0.977E+00   -.876E-04 0.474E-03 -.576E-03
   0.635E+00 0.460E+01 0.236E+03   -.657E+00 -.443E+01 -.235E+03   -.392E-01 -.267E+00 -.725E+00   0.121E-03 -.632E-03 -.122E-02
   -.581E+02 0.650E+01 -.423E+02   0.578E+02 -.622E+01 0.419E+02   0.314E+00 -.287E+00 0.380E+00   0.137E-02 0.303E-03 -.150E-02
   -.457E+02 0.455E+01 0.354E+03   0.450E+02 -.393E+01 -.351E+03   0.649E+00 -.102E+01 -.227E+01   0.374E-03 0.142E-02 0.345E-03
   -.379E+03 -.882E+01 0.625E+03   0.378E+03 0.957E+01 -.627E+03   0.178E+00 -.296E+00 0.947E+00   0.541E-02 -.815E-03 -.827E-02
   -.299E+03 0.230E+03 -.138E+04   0.298E+03 -.229E+03 0.137E+04   0.959E+00 -.117E+01 0.301E+01   -.633E-03 0.275E-02 -.539E-02
   0.987E+02 -.748E+01 0.176E+04   -.983E+02 0.640E+01 -.175E+04   -.509E+00 0.645E+00 -.431E+01   -.677E-02 0.319E-02 0.127E-02
   0.141E+03 -.135E+02 -.127E+03   -.141E+03 0.137E+02 0.129E+03   0.181E+00 -.258E+00 -.112E+01   -.414E-02 -.180E-02 -.217E-02
   -.559E+02 0.137E+03 0.183E+04   0.567E+02 -.137E+03 -.182E+04   -.520E+00 -.421E+00 -.276E+01   0.342E-02 -.620E-02 -.198E-02
   0.675E+02 0.133E+03 -.169E+03   -.667E+02 -.133E+03 0.169E+03   -.833E+00 0.526E+00 -.963E-01   0.156E-02 0.220E-03 -.307E-02
   -.420E+03 0.143E+01 0.903E+03   0.421E+03 -.254E+01 -.901E+03   -.769E+00 0.132E+01 -.154E+01   -.196E-02 0.181E-02 0.245E-03
   -.143E+03 -.594E+02 -.137E+04   0.144E+03 0.585E+02 0.137E+04   -.887E+00 0.960E+00 0.297E+01   -.326E-02 -.381E-02 -.172E-02
   0.296E+03 -.115E+03 0.167E+04   -.296E+03 0.115E+03 -.166E+04   0.270E+00 -.386E+00 -.419E+01   -.378E-02 0.645E-02 0.785E-03
   0.333E+03 -.159E+03 -.181E+03   -.333E+03 0.159E+03 0.181E+03   0.121E+00 -.574E-01 -.527E+00   -.104E-01 0.462E-02 -.213E-02
   -.155E+02 0.470E+01 0.247E+03   0.150E+02 -.461E+01 -.247E+03   0.546E+00 -.299E+00 0.775E-01   -.203E-03 0.916E-03 -.616E-03
   -.523E+02 -.111E+03 -.511E+03   0.518E+02 0.110E+03 0.510E+03   0.512E+00 0.236E+00 0.151E+01   0.112E-02 -.750E-03 -.697E-03
   0.174E+03 -.473E+01 0.239E+03   -.173E+03 0.460E+01 -.240E+03   -.145E+01 0.620E+00 0.374E+00   0.112E-02 -.515E-03 -.561E-03
   0.174E+03 -.377E+02 -.479E+03   -.173E+03 0.391E+02 0.476E+03   -.118E+01 -.138E+01 0.264E+01   -.627E-04 0.152E-02 -.359E-02
   0.131E+03 -.554E+02 -.331E+02   -.131E+03 0.554E+02 0.329E+02   -.251E+00 -.546E-01 0.181E+00   0.549E-03 -.474E-03 -.148E-02
   0.117E+03 -.556E+02 0.508E+03   -.116E+03 0.557E+02 -.505E+03   -.825E+00 -.252E+00 -.267E+01   0.124E-02 -.446E-03 0.549E-03
   -.997E+02 0.667E+02 -.814E+02   0.996E+02 -.663E+02 0.815E+02   0.885E-01 -.398E+00 -.339E-01   -.481E-03 0.136E-02 -.117E-02
   -.100E+03 0.595E+02 0.561E+03   0.997E+02 -.590E+02 -.558E+03   0.468E+00 -.554E+00 -.277E+01   -.314E-03 0.141E-02 0.852E-04
   0.774E+02 -.117E+02 0.221E+03   -.784E+02 0.111E+02 -.221E+03   0.957E+00 0.805E+00 -.447E+00   -.194E-02 0.378E-04 -.947E-03
   -.506E+02 -.102E+03 -.449E+03   0.505E+02 0.101E+03 0.447E+03   0.882E-01 0.433E+00 0.209E+01   -.133E-02 0.397E-03 -.158E-02
   -.737E+02 0.311E+01 -.406E+03   0.732E+02 -.300E+01 0.403E+03   0.499E+00 -.108E+00 0.284E+01   -.684E-03 0.127E-02 -.893E-03
   -.164E+03 0.622E+01 0.243E+03   0.163E+03 -.602E+01 -.244E+03   0.186E+00 -.371E+00 0.386E+00   0.486E-03 0.898E-03 -.118E-02
   -.150E+03 -.569E+01 0.519E+03   0.149E+03 0.564E+01 -.516E+03   0.720E+00 -.498E-01 -.259E+01   0.318E-03 -.702E-03 0.511E-03
   -.194E+03 -.567E+01 -.840E+02   0.193E+03 0.564E+01 0.839E+02   0.953E+00 0.308E-01 0.110E+00   -.347E-03 0.742E-03 -.101E-02
   0.811E+02 -.852E+00 0.227E+03   -.813E+02 0.123E+01 -.227E+03   0.920E-01 -.598E-01 -.161E+00   -.139E-02 0.164E-03 -.829E-03
   0.424E+02 0.118E+03 -.454E+03   -.421E+02 -.118E+03 0.452E+03   -.309E+00 0.640E-01 0.169E+01   0.132E-02 -.406E-03 -.163E-02
   0.530E+02 0.174E+01 -.902E+02   -.536E+02 -.155E+01 0.897E+02   0.566E+00 -.190E+00 0.442E+00   -.296E-02 0.335E-03 -.129E-02
   0.348E+02 -.140E+01 0.541E+03   -.354E+02 0.133E+01 -.538E+03   0.609E+00 0.695E-01 -.246E+01   -.152E-02 -.105E-02 -.457E-03
   0.128E+03 0.111E+02 0.215E+03   -.128E+03 -.113E+02 -.215E+03   -.888E+00 0.571E+00 -.454E+00   -.263E-02 0.785E-03 0.791E-03
   0.804E+02 0.226E+02 -.419E+03   -.788E+02 -.210E+02 0.418E+03   -.152E+01 -.155E+01 0.159E+01   -.408E-03 0.119E-02 -.165E-02
   0.127E+03 0.614E+01 0.241E+03   -.127E+03 -.595E+01 -.240E+03   0.564E-01 -.328E+00 -.589E+00   0.180E-03 0.702E-03 0.258E-04
   0.144E+03 0.626E+02 -.368E+03   -.145E+03 -.635E+02 0.366E+03   0.147E+01 0.971E+00 0.190E+01   -.126E-03 -.946E-03 -.284E-02
   0.126E+03 0.396E+02 0.468E+03   -.126E+03 -.394E+02 -.465E+03   0.123E+00 -.430E+00 -.270E+01   0.847E-03 0.177E-03 0.113E-02
   0.148E+03 0.372E+02 -.202E+02   -.148E+03 -.366E+02 0.200E+02   -.286E+00 -.627E+00 0.173E+00   0.694E-04 0.105E-02 -.228E-02
   -.986E+02 -.105E+01 0.526E+03   0.989E+02 0.103E+01 -.523E+03   -.480E+00 0.572E-01 -.310E+01   -.706E-04 0.724E-03 0.593E-03
   -.145E+03 0.442E+01 -.581E+02   0.145E+03 -.434E+01 0.587E+02   0.406E+00 -.764E-01 -.547E+00   0.946E-03 -.524E-03 -.207E-02
   0.129E+03 0.282E+02 0.495E+03   -.129E+03 -.285E+02 -.492E+03   -.238E+00 0.338E+00 -.248E+01   -.143E-02 -.102E-02 0.886E-04
   0.139E+03 0.409E+02 -.437E+02   -.138E+03 -.407E+02 0.430E+02   -.632E+00 -.151E+00 0.697E+00   -.117E-02 -.137E-02 -.263E-02
   0.159E+02 -.394E+01 -.418E+03   -.167E+02 0.344E+01 0.415E+03   0.787E+00 0.496E+00 0.303E+01   -.115E-02 -.116E-02 -.249E-02
   0.125E+03 -.612E+01 0.260E+03   -.125E+03 0.583E+01 -.261E+03   0.454E+00 0.297E+00 -.132E+00   -.162E-02 -.833E-03 -.144E-02
   0.365E+02 0.354E+01 0.197E+03   -.362E+02 -.345E+01 -.198E+03   -.119E+00 -.194E+00 0.765E-01   0.145E-02 -.483E-03 0.173E-03
   0.296E+02 0.291E+02 -.373E+03   -.310E+02 -.283E+02 0.371E+03   0.141E+01 -.755E+00 0.230E+01   0.561E-03 0.759E-03 -.168E-02
   -.408E+02 0.150E-01 0.480E+03   0.410E+02 0.382E+00 -.476E+03   -.596E-01 -.271E+00 -.277E+01   0.660E-03 -.179E-02 0.687E-03
   -.613E+02 -.319E+01 -.506E+02   0.612E+02 0.274E+01 0.510E+02   0.909E-01 0.442E+00 -.337E+00   0.105E-02 -.184E-03 -.185E-02
   0.519E+02 -.286E+01 0.461E+03   -.519E+02 0.220E+01 -.457E+03   0.312E-01 0.211E+00 -.307E+01   0.172E-02 0.594E-03 0.680E-03
   0.576E+02 -.522E+01 -.754E+02   -.572E+02 0.494E+01 0.761E+02   -.403E+00 0.275E+00 -.726E+00   0.201E-02 0.351E-03 -.184E-02
   -.699E+02 -.348E+01 0.228E+03   0.699E+02 0.367E+01 -.228E+03   0.127E+00 0.253E+00 0.273E+00   0.681E-03 -.863E-04 -.133E-02
   -.621E+02 -.430E+02 -.352E+03   0.629E+02 0.423E+02 0.350E+03   -.797E+00 0.706E+00 0.237E+01   0.198E-03 0.220E-03 -.192E-02
   0.408E+02 0.871E+00 0.475E+03   -.401E+02 -.736E+00 -.471E+03   -.859E+00 -.301E+00 -.330E+01   0.310E-03 -.427E-03 0.919E-03
   0.397E+02 0.413E+00 -.419E+02   -.393E+02 -.340E+00 0.423E+02   -.446E+00 -.729E-01 -.406E+00   0.101E-02 -.723E-03 -.216E-02
   -.944E+02 0.155E+00 0.203E+03   0.941E+02 -.328E+00 -.203E+03   0.500E+00 0.268E+00 0.157E+00   0.935E-03 0.296E-03 0.230E-03
   -.590E+02 -.583E+01 -.393E+03   0.580E+02 0.478E+01 0.391E+03   0.966E+00 0.105E+01 0.213E+01   0.118E-02 -.373E-03 -.853E-03
   0.347E+02 -.318E+02 -.352E+03   -.337E+02 0.319E+02 0.350E+03   -.978E+00 -.100E+00 0.230E+01   0.133E-02 -.874E-03 -.233E-02
   0.529E+02 -.626E+01 0.235E+03   -.522E+02 0.618E+01 -.235E+03   -.725E+00 0.440E+00 -.125E+00   0.788E-03 0.580E-03 -.510E-03
   -.141E+03 -.427E+02 0.557E+03   0.140E+03 0.420E+02 -.553E+03   0.858E+00 0.561E-01 -.326E+01   0.539E-03 -.121E-02 0.334E-03
   -.149E+03 -.440E+02 -.549E+02   0.148E+03 0.437E+02 0.554E+02   0.479E+00 0.343E+00 -.550E+00   -.262E-04 -.995E-03 -.822E-03
   -.156E+03 0.548E+01 0.229E+03   0.155E+03 -.551E+01 -.229E+03   0.656E+00 0.310E+00 0.438E-01   0.763E-03 -.895E-03 -.105E-02
   -.117E+03 0.284E+01 -.395E+03   0.116E+03 -.241E+01 0.394E+03   0.308E+00 -.437E+00 0.166E+01   -.655E-03 -.669E-03 -.875E-03
   0.135E+03 0.111E+03 -.660E+03   -.135E+03 -.111E+03 0.667E+03   0.132E+00 0.364E+00 -.649E+01   -.938E-03 -.352E-02 -.407E-02
   -.600E+02 0.182E+02 -.806E+03   0.600E+02 -.198E+02 0.821E+03   0.891E-02 0.156E+01 -.148E+02   0.994E-03 -.164E-04 -.279E-03
   0.192E+03 0.471E+02 -.643E+03   -.193E+03 -.495E+02 0.650E+03   0.902E+00 0.244E+01 -.697E+01   -.121E-02 0.457E-02 -.325E-02
   -.741E+02 -.281E+02 -.727E+03   0.739E+02 0.303E+02 0.736E+03   0.256E+00 -.226E+01 -.866E+01   0.266E-02 0.163E-03 -.981E-03
   0.902E+02 -.755E+02 -.814E+03   -.911E+02 0.794E+02 0.831E+03   0.822E+00 -.387E+01 -.166E+02   0.732E-03 -.116E-02 -.403E-02
   0.310E+02 -.636E+02 -.928E+03   -.270E+02 0.626E+02 0.948E+03   -.400E+01 0.947E+00 -.192E+02   -.304E-02 0.205E-02 -.749E-03
   -.136E+03 -.924E+02 -.969E+03   0.134E+03 0.917E+02 0.987E+03   0.119E+01 0.652E+00 -.183E+02   -.196E-02 -.215E-02 -.338E-02
   0.280E+02 0.110E+02 -.967E+03   -.284E+02 -.103E+02 0.988E+03   0.433E+00 -.778E+00 -.204E+02   0.336E-02 0.206E-02 0.648E-03
 -----------------------------------------------------------------------------------------------
   -.107E+01 0.143E+01 0.126E+03   0.483E-12 0.178E-14 -.909E-12   0.103E+01 -.141E+01 -.126E+03   -.167E-01 0.861E-02 -.855E-01
 
 
 POSITION                                       TOTAL-FORCE (eV/Angst)
 -----------------------------------------------------------------------------------
      8.57631      8.29685     10.39845        -0.072635     -0.148120      0.004381
      8.59427      3.71537     15.14662         0.000837      0.002602     -0.001000
      8.47231      6.01950     17.34418         0.002549     -0.003739      0.005132
      8.51616      0.79995     12.43874        -0.060619     -0.097248     -0.181083
     13.50600      6.08535     15.21010        -0.001558     -0.002646      0.002286
     13.49094      1.15316     10.44749        -0.041144     -0.395272     -0.043539
     10.03344      3.28428     12.67411        -0.071436      0.450466     -0.583632
     10.01118      8.38261     17.23884         0.003820     -0.003635      0.002914
      7.12524      5.81577     10.15765        -0.146798     -0.432361      0.940602
      7.07392      1.29204     14.97286         0.002297     -0.003815     -0.000492
      8.51222      3.28036     10.20450         0.303373      0.011795      0.779843
      8.52411      8.32951     14.86049         0.002201     -0.001975     -0.001360
     10.22263      8.06723     12.77991         0.183762      0.211416     -0.426970
     10.28991      3.92036     17.35072         0.004218     -0.003346      0.001167
      5.42664      8.10481     10.20639         0.284769      0.040726      0.925648
      5.37019      3.53395     15.09055         0.002001     -0.005890      0.004187
      8.52843      5.75423     12.65640         0.044977     -0.206953     -0.128340
      8.69423      1.45874     17.30049         0.001237     -0.004643      0.002503
      3.84829      7.97317     12.47259        -0.483189      0.483572     -0.617489
      3.86363      3.37535     17.46321        -0.002847      0.000543      0.001323
      3.87002      5.70063     14.84101        -0.002157      0.000125      0.000337
      3.90063      0.73891     10.00000         0.490500     -0.192612      0.364656
     10.14612      6.04628     14.96363         0.001820     -0.002764      0.001596
     10.19112      1.10470     10.13736        -0.210108     -0.013377      0.335861
      6.82945      7.99424     12.66670        -0.044751      0.229448     -0.418505
      6.91117      3.64712     17.38789        -0.000511      0.001461      0.000439
     11.59676      6.20717     17.38491        -0.004657      0.000617      0.003184
     11.66772      1.05372     12.57547        -0.174215     -0.168340     -0.679981
     11.73919      3.33868     10.41199        -0.276563     -0.106160      0.558523
     11.75476      8.24623     15.24249         0.002275     -0.000372     -0.001847
      7.18522      3.24644     12.75390        -0.120839      0.322293     -0.447750
      7.34358      8.46261     17.34996         0.002754     -0.000359     -0.001404
      6.86351      5.94070     14.91022         0.003562      0.002000      0.000073
      6.87795      0.97560     10.08695        -0.054381     -0.005345      0.176721
      5.51084      5.55012     12.48419        -0.132737      0.336338     -0.357121
      5.60828      0.99543     17.48270         0.001108      0.000953      0.001269
      3.51249      3.50019     12.83519        -0.015268     -0.140502     -0.190101
      3.29838      8.69758     17.27695        -0.000877     -0.004166      0.000276
      3.46798      5.87237     10.40868         0.049530     -0.237412     -0.058404
      3.48426      1.31959     15.19428        -0.000107      0.002005     -0.001132
     11.91771      8.21633     10.24534        -0.202281      0.034324      0.643456
     11.91153      3.66022     15.10212        -0.000851      0.000820     -0.002513
      5.24135      3.36543     10.32679         0.143364      0.090977      0.167608
      5.22991      8.33962     15.10665         0.000624      0.000919     -0.003187
      5.27831      6.19665     17.43735         0.000291     -0.003794      0.004449
      5.28930      0.99064     12.60849         0.180137      0.005001     -0.351394
      1.60538      5.84491     12.85122         0.148684     -0.109175     -0.573054
      1.40210      1.57784     17.63731         0.000573     -0.000171     -0.000084
     13.72038      5.67134     10.18293         0.176595      0.123852      0.659351
     13.68096      1.10076     15.03320        -0.001390     -0.001323     -0.001058
      1.63456      8.33987     10.36453         0.032727     -0.448991      0.164768
      1.64762      3.76408     15.37948         0.001042     -0.000963      0.000741
     13.76831      3.16119     12.53308         0.163568      0.441154     -0.226651
     13.74258      8.33312     17.29443        -0.004140      0.000447     -0.001758
      1.99440      3.17314     10.17666        -0.117387     -0.165793      0.643463
      1.87289      8.09582     14.97460        -0.002036     -0.001390     -0.002725
     13.48051      8.37930     12.86886         0.171286      0.095453     -0.301801
     13.37105      4.15253     17.77880         0.002869      0.001405      0.000748
      2.00281      6.01372     17.48165         0.003598     -0.001002      0.003255
      2.02729      0.87737     12.46815         0.003692      0.363209     -0.410143
     10.07171      5.79402     10.14663         0.130269     -0.609579      0.170337
     10.17380      1.19062     14.86153        -0.000273      0.002494     -0.000920
     11.97051      5.66181     12.67660        -0.315050      0.284272     -0.558243
     11.87583      1.40202     17.72103        -0.001541     -0.003908      0.001966
      5.29859      8.42191     17.45499         0.000659     -0.000239      0.000936
     13.53940      2.28584     18.71421        -0.001166      0.000153      0.000487
      3.55732      1.20258     17.57965         0.001798     -0.003537      0.001425
     13.61230      6.30283     18.13114         0.002555     -0.003017      0.002818
      3.70605      5.13023     18.40184         0.002155      0.001982      0.000467
      5.54766      2.79038     18.45595         0.005908     -0.007374      0.001381
     10.19496      0.44384     18.43949         0.001684     -0.001012     -0.001636
      7.28433      0.53040     18.44193         0.001843     -0.000499     -0.005252
 -----------------------------------------------------------------------------------
    total drift:                               -0.061893      0.025013      0.036727


--------------------------------------------------------------------------------------------------------



  FREE ENERGIE OF THE ION-ELECTRON SYSTEM (eV)
  ---------------------------------------------------
  free  energy   TOTEN  =      -588.17660638 eV

  energy  without entropy=     -588.17673812  energy(sigma->0) =     -588.17663931
 


--------------------------------------------------------------------------------------------------------


    POTLOK:  cpu time    0.0617: real time    0.0617


--------------------------------------------------------------------------------------------------------


     LOOP+:  cpu time  196.5689: real time  196.8258
    4ORBIT:  cpu time    0.0000: real time    0.0000

 total amount of memory used by VASP on root node    74445. kBytes
========================================================================

   base      :      30000. kBytes
   nonlr-proj:       7577. kBytes
   fftplans  :       3890. kBytes
   grid      :       8747. kBytes
   one-center:         46. kBytes
   wavefun   :      24185. kBytes
 
  
  
 General timing and accounting informations for this job:
 ========================================================
  
                  Total CPU time used (sec):      213.063
                            User time (sec):      209.293
                          System time (sec):        3.770
                         Elapsed time (sec):      213.294
  
                   Maximum memory used (kb):      153796.
                   Average memory used (kb):           0.
  
                          Minor page faults:        40666
                          Major page faults:            0
                 Voluntary context switches:         2266
