  32  32   1   0
  0.1956131E+02  0.1377135E-08  0.7198218E-09  0.6315432E-09  0.1000000E-15
  1.000000000000000E-004
  CAR
 (110) surface

    -51.781  0.0000E+00  0.0000E+00
    -51.577  0.0000E+00  0.0000E+00
    -51.373  0.0000E+00  0.0000E+00
    -51.169  0.0000E+00  0.0000E+00
    -50.965  0.0000E+00  0.0000E+00
    -50.761  0.0000E+00  0.0000E+00
    -50.558  0.0000E+00  0.0000E+00
    -50.354  0.0000E+00  0.0000E+00
    -50.150  0.0000E+00  0.0000E+00
    -49.946  0.1672E-35  0.3410E-36
    -49.742  0.6946E-21  0.1416E-21
    -49.538  0.5570E-10  0.1136E-10
    -49.334  0.6684E-03  0.1363E-03
    -49.130 -0.2959E+00 -0.6021E-01
    -48.926  0.3069E+02  0.6198E+01
    -48.722  0.1744E+02  0.9755E+01
    -48.518  0.1178E+01  0.9995E+01
    -48.315  0.2315E-01  0.1000E+02
    -48.111  0.1745E-06  0.1000E+02
    -47.907  0.0000E+00  0.1000E+02
    -47.703  0.0000E+00  0.1000E+02
    -47.499  0.0000E+00  0.1000E+02
    -47.295  0.0000E+00  0.1000E+02
    -47.091  0.0000E+00  0.1000E+02
    -46.887  0.0000E+00  0.1000E+02
    -46.683  0.0000E+00  0.1000E+02
    -46.479  0.0000E+00  0.1000E+02
    -46.276  0.0000E+00  0.1000E+02
    -46.072  0.0000E+00  0.1000E+02
    -45.868  0.0000E+00  0.1000E+02
    -45.664  0.0000E+00  0.1000E+02
    -45.460  0.0000E+00  0.1000E+02
    -45.256  0.0000E+00  0.1000E+02
    -45.052  0.0000E+00  0.1000E+02
    -44.848  0.0000E+00  0.1000E+02
    -44.644  0.0000E+00  0.1000E+02
    -44.440  0.0000E+00  0.1000E+02
    -44.236  0.0000E+00  0.1000E+02
    -44.033  0.0000E+00  0.1000E+02
    -43.829  0.0000E+00  0.1000E+02
    -43.625  0.0000E+00  0.1000E+02
    -43.421  0.0000E+00  0.1000E+02
    -43.217  0.0000E+00  0.1000E+02
    -43.013  0.0000E+00  0.1000E+02
    -42.809  0.0000E+00  0.1000E+02
    -42.605  0.0000E+00  0.1000E+02
    -42.401  0.0000E+00  0.1000E+02
    -42.197  0.0000E+00  0.1000E+02
    -41.994  0.0000E+00  0.1000E+02
    -41.790  0.0000E+00  0.1000E+02
    -41.586  0.0000E+00  0.1000E+02
    -41.382  0.0000E+00  0.1000E+02
    -41.178  0.0000E+00  0.1000E+02
    -40.974  0.0000E+00  0.1000E+02
    -40.770  0.0000E+00  0.1000E+02
    -40.566  0.0000E+00  0.1000E+02
    -40.362  0.0000E+00  0.1000E+02
    -40.158  0.0000E+00  0.1000E+02
    -39.954  0.0000E+00  0.1000E+02
    -39.751  0.0000E+00  0.1000E+02
    -39.547  0.0000E+00  0.1000E+02
    -39.343  0.0000E+00  0.1000E+02
    -39.139  0.0000E+00  0.1000E+02
    -38.935  0.0000E+00  0.1000E+02
    -38.731  0.0000E+00  0.1000E+02
    -38.527  0.0000E+00  0.1000E+02
    -38.323  0.0000E+00  0.1000E+02
    -38.119  0.0000E+00  0.1000E+02
    -37.915  0.0000E+00  0.1000E+02
    -37.711  0.0000E+00  0.1000E+02
    -37.508  0.0000E+00  0.1000E+02
    -37.304  0.0000E+00  0.1000E+02
    -37.100  0.0000E+00  0.1000E+02
    -36.896  0.0000E+00  0.1000E+02
    -36.692  0.0000E+00  0.1000E+02
    -36.488  0.0000E+00  0.1000E+02
    -36.284  0.0000E+00  0.1000E+02
    -36.080  0.0000E+00  0.1000E+02
    -35.876  0.0000E+00  0.1000E+02
    -35.672  0.0000E+00  0.1000E+02
    -35.469  0.0000E+00  0.1000E+02
    -35.265  0.0000E+00  0.1000E+02
    -35.061  0.0000E+00  0.1000E+02
    -34.857  0.0000E+00  0.1000E+02
    -34.653  0.0000E+00  0.1000E+02
    -34.449  0.0000E+00  0.1000E+02
    -34.245  0.0000E+00  0.1000E+02
    -34.041  0.0000E+00  0.1000E+02
    -33.837  0.0000E+00  0.1000E+02
    -33.633  0.0000E+00  0.1000E+02
    -33.429  0.0000E+00  0.1000E+02
    -33.226  0.0000E+00  0.1000E+02
    -33.022  0.0000E+00  0.1000E+02
    -32.818  0.0000E+00  0.1000E+02
    -32.614  0.0000E+00  0.1000E+02
    -32.410  0.0000E+00  0.1000E+02
    -32.206  0.0000E+00  0.1000E+02
    -32.002  0.0000E+00  0.1000E+02
    -31.798  0.0000E+00  0.1000E+02
    -31.594  0.0000E+00  0.1000E+02
    -31.390  0.0000E+00  0.1000E+02
    -31.187  0.0000E+00  0.1000E+02
    -30.983  0.0000E+00  0.1000E+02
    -30.779  0.0000E+00  0.1000E+02
    -30.575  0.0000E+00  0.1000E+02
    -30.371  0.0000E+00  0.1000E+02
    -30.167  0.0000E+00  0.1000E+02
    -29.963  0.0000E+00  0.1000E+02
    -29.759  0.0000E+00  0.1000E+02
    -29.555  0.0000E+00  0.1000E+02
    -29.351  0.0000E+00  0.1000E+02
    -29.147  0.0000E+00  0.1000E+02
    -28.944  0.0000E+00  0.1000E+02
    -28.740  0.0000E+00  0.1000E+02
    -28.536  0.0000E+00  0.1000E+02
    -28.332  0.0000E+00  0.1000E+02
    -28.128  0.0000E+00  0.1000E+02
    -27.924  0.0000E+00  0.1000E+02
    -27.720  0.0000E+00  0.1000E+02
    -27.516  0.0000E+00  0.1000E+02
    -27.312  0.0000E+00  0.1000E+02
    -27.108  0.0000E+00  0.1000E+02
    -26.904  0.0000E+00  0.1000E+02
    -26.701  0.0000E+00  0.1000E+02
    -26.497  0.0000E+00  0.1000E+02
    -26.293  0.1575E-36  0.1000E+02
    -26.089  0.1138E-21  0.1000E+02
    -25.885  0.1610E-10  0.1000E+02
    -25.681  0.3345E-03  0.1000E+02
    -25.477 -0.1961E+00  0.9960E+01
    -25.273  0.1848E+02  0.1373E+02
    -25.069  0.4260E+02  0.2241E+02
    -24.865  0.5171E+02  0.3296E+02
    -24.662  0.3204E+02  0.3949E+02
    -24.458  0.2452E+01  0.3999E+02
    -24.254  0.4064E-01  0.4000E+02
    -24.050  0.9807E-06  0.4000E+02
    -23.846  0.0000E+00  0.4000E+02
    -23.642  0.0000E+00  0.4000E+02
    -23.438  0.0000E+00  0.4000E+02
    -23.234  0.0000E+00  0.4000E+02
    -23.030  0.0000E+00  0.4000E+02
    -22.826  0.0000E+00  0.4000E+02
    -22.622  0.0000E+00  0.4000E+02
    -22.419  0.0000E+00  0.4000E+02
    -22.215  0.0000E+00  0.4000E+02
    -22.011  0.0000E+00  0.4000E+02
    -21.807  0.0000E+00  0.4000E+02
    -21.603  0.0000E+00  0.4000E+02
    -21.399  0.0000E+00  0.4000E+02
    -21.195  0.0000E+00  0.4000E+02
    -20.991  0.0000E+00  0.4000E+02
    -20.787  0.0000E+00  0.4000E+02
    -20.583  0.0000E+00  0.4000E+02
    -20.380  0.0000E+00  0.4000E+02
    -20.176  0.0000E+00  0.4000E+02
    -19.972  0.0000E+00  0.4000E+02
    -19.768  0.0000E+00  0.4000E+02
    -19.564  0.0000E+00  0.4000E+02
    -19.360  0.0000E+00  0.4000E+02
    -19.156  0.0000E+00  0.4000E+02
    -18.952  0.0000E+00  0.4000E+02
    -18.748  0.0000E+00  0.4000E+02
    -18.544  0.0000E+00  0.4000E+02
    -18.340  0.0000E+00  0.4000E+02
    -18.137  0.0000E+00  0.4000E+02
    -17.933  0.0000E+00  0.4000E+02
    -17.729  0.0000E+00  0.4000E+02
    -17.525  0.0000E+00  0.4000E+02
    -17.321  0.0000E+00  0.4000E+02
    -17.117  0.0000E+00  0.4000E+02
    -16.913  0.0000E+00  0.4000E+02
    -16.709  0.0000E+00  0.4000E+02
    -16.505  0.0000E+00  0.4000E+02
    -16.301  0.0000E+00  0.4000E+02
    -16.097  0.0000E+00  0.4000E+02
    -15.894  0.0000E+00  0.4000E+02
    -15.690  0.0000E+00  0.4000E+02
    -15.486  0.0000E+00  0.4000E+02
    -15.282  0.0000E+00  0.4000E+02
    -15.078  0.0000E+00  0.4000E+02
    -14.874  0.0000E+00  0.4000E+02
    -14.670  0.0000E+00  0.4000E+02
    -14.466  0.0000E+00  0.4000E+02
    -14.262  0.0000E+00  0.4000E+02
    -14.058  0.0000E+00  0.4000E+02
    -13.855  0.0000E+00  0.4000E+02
    -13.651  0.0000E+00  0.4000E+02
    -13.447  0.0000E+00  0.4000E+02
    -13.243  0.0000E+00  0.4000E+02
    -13.039  0.0000E+00  0.4000E+02
    -12.835  0.0000E+00  0.4000E+02
    -12.631  0.0000E+00  0.4000E+02
    -12.427  0.0000E+00  0.4000E+02
    -12.223  0.0000E+00  0.4000E+02
    -12.019  0.0000E+00  0.4000E+02
    -11.815  0.0000E+00  0.4000E+02
    -11.612  0.0000E+00  0.4000E+02
    -11.408  0.0000E+00  0.4000E+02
    -11.204  0.0000E+00  0.4000E+02
    -11.000  0.0000E+00  0.4000E+02
    -10.796  0.0000E+00  0.4000E+02
    -10.592  0.0000E+00  0.4000E+02
    -10.388  0.0000E+00  0.4000E+02
    -10.184  0.0000E+00  0.4000E+02
     -9.980  0.0000E+00  0.4000E+02
     -9.776  0.0000E+00  0.4000E+02
     -9.573  0.0000E+00  0.4000E+02
     -9.369  0.0000E+00  0.4000E+02
     -9.165  0.0000E+00  0.4000E+02
     -8.961  0.0000E+00  0.4000E+02
     -8.757  0.0000E+00  0.4000E+02
     -8.553  0.0000E+00  0.4000E+02
     -8.349  0.0000E+00  0.4000E+02
     -8.145  0.0000E+00  0.4000E+02
     -7.941  0.0000E+00  0.4000E+02
     -7.737  0.0000E+00  0.4000E+02
     -7.533  0.0000E+00  0.4000E+02
     -7.330  0.0000E+00  0.4000E+02
     -7.126  0.0000E+00  0.4000E+02
     -6.922  0.0000E+00  0.4000E+02
     -6.718  0.0000E+00  0.4000E+02
     -6.514  0.0000E+00  0.4000E+02
     -6.310  0.0000E+00  0.4000E+02
     -6.106  0.0000E+00  0.4000E+02
     -5.902  0.0000E+00  0.4000E+02
     -5.698  0.0000E+00  0.4000E+02
     -5.494  0.0000E+00  0.4000E+02
     -5.290  0.0000E+00  0.4000E+02
     -5.087  0.0000E+00  0.4000E+02
     -4.883  0.0000E+00  0.4000E+02
     -4.679  0.0000E+00  0.4000E+02
     -4.475  0.0000E+00  0.4000E+02
     -4.271  0.0000E+00  0.4000E+02
     -4.067  0.0000E+00  0.4000E+02
     -3.863  0.0000E+00  0.4000E+02
     -3.659  0.0000E+00  0.4000E+02
     -3.455  0.0000E+00  0.4000E+02
     -3.251  0.0000E+00  0.4000E+02
     -3.048  0.0000E+00  0.4000E+02
     -2.844  0.0000E+00  0.4000E+02
     -2.640  0.0000E+00  0.4000E+02
     -2.436  0.7297E-35  0.4000E+02
     -2.232  0.1389E-20  0.4000E+02
     -2.028  0.5049E-10  0.4000E+02
     -1.824  0.2440E-03  0.4000E+02
     -1.620 -0.9037E-01  0.3998E+02
     -1.416  0.2652E+01  0.4052E+02
     -1.212  0.4123E+00  0.4061E+02
     -1.008  0.4431E+01  0.4151E+02
     -0.805  0.2364E+01  0.4199E+02
     -0.601  0.2214E+01  0.4244E+02
     -0.397  0.3647E+01  0.4319E+02
     -0.193  0.5330E+01  0.4427E+02
      0.011  0.3667E+01  0.4502E+02
      0.215  0.1516E+01  0.4533E+02
      0.419  0.3698E+01  0.4609E+02
      0.623  0.5857E+01  0.4728E+02
      0.827  0.3006E+01  0.4789E+02
      1.031  0.2887E+01  0.4848E+02
      1.234  0.4844E+01  0.4947E+02
      1.438  0.4071E+01  0.5030E+02
      1.642  0.9765E+01  0.5229E+02
      1.846  0.9304E+01  0.5419E+02
      2.050  0.1062E+02  0.5635E+02
      2.254  0.1487E+02  0.5939E+02
      2.458  0.1898E+02  0.6326E+02
      2.662  0.2564E+02  0.6848E+02
      2.866  0.2839E+02  0.7427E+02
      3.070  0.3209E+02  0.8082E+02
      3.274  0.3400E+02  0.8775E+02
      3.477  0.3354E+02  0.9459E+02
      3.681  0.3192E+02  0.1011E+03
      3.885  0.3634E+02  0.1085E+03
      4.089  0.3342E+02  0.1153E+03
      4.293  0.4155E+02  0.1238E+03
      4.497  0.4286E+02  0.1325E+03
      4.701  0.4594E+02  0.1419E+03
      4.905  0.4612E+02  0.1513E+03
      5.109  0.4390E+02  0.1603E+03
      5.313  0.4193E+02  0.1688E+03
      5.517  0.3699E+02  0.1763E+03
      5.720  0.3803E+02  0.1841E+03
      5.924  0.4137E+02  0.1925E+03
      6.128  0.3812E+02  0.2003E+03
      6.332  0.2617E+02  0.2056E+03
      6.536  0.1069E+02  0.2078E+03
      6.740  0.8531E+00  0.2080E+03
      6.944  0.1668E-02  0.2080E+03
      7.148  0.1704E-04  0.2080E+03
      7.352  0.1667E-11  0.2080E+03
      7.556  0.0000E+00  0.2080E+03
      7.759  0.0000E+00  0.2080E+03
      7.963  0.0000E+00  0.2080E+03
      8.167  0.0000E+00  0.2080E+03
      8.371  0.0000E+00  0.2080E+03
      8.575  0.0000E+00  0.2080E+03
      8.779  0.0000E+00  0.2080E+03
      8.983  0.0000E+00  0.2080E+03
      9.187  0.0000E+00  0.2080E+03
      9.391  0.0000E+00  0.2080E+03
    -51.781  0.0000E+00  0.0000E+00  0.0000E+00  0.0000E+00  0.0000E+00  0.0000E+00  0.0000E+00  0.0000E+00  0.0000E+00
    -51.577  0.0000E+00  0.0000E+00  0.0000E+00  0.0000E+00  0.0000E+00  0.0000E+00  0.0000E+00  0.0000E+00  0.0000E+00
    -51.373  0.0000E+00  0.0000E+00  0.0000E+00  0.0000E+00  0.0000E+00  0.0000E+00  0.0000E+00  0.0000E+00  0.0000E+00
    -51.169  0.0000E+00  0.0000E+00  0.0000E+00  0.0000E+00  0.0000E+00  0.0000E+00  0.0000E+00  0.0000E+00  0.0000E+00
    -50.965  0.0000E+00  0.0000E+00  0.0000E+00  0.0000E+00  0.0000E+00  0.0000E+00  0.0000E+00  0.0000E+00  0.0000E+00
    -50.761  0.0000E+00  0.0000E+00  0.0000E+00  0.0000E+00  0.0000E+00  0.0000E+00  0.0000E+00  0.0000E+00  0.0000E+00
    -50.558  0.0000E+00  0.0000E+00  0.0000E+00  0.0000E+00  0.0000E+00  0.0000E+00  0.0000E+00  0.0000E+00  0.0000E+00
    -50.354  0.0000E+00  0.0000E+00  0.0000E+00  0.0000E+00  0.0000E+00  0.0000E+00  0.0000E+00  0.0000E+00  0.0000E+00
    -50.150  0.0000E+00  0.0000E+00  0.0000E+00  0.0000E+00  0.0000E+00  0.0000E+00  0.0000E+00  0.0000E+00  0.0000E+00
    -49.946  0.3614E-42  0.2078E-42  0.1554E-42  0.1446E-42  0.0000E+00  0.0000E+00  0.0000E+00  0.0000E+00  0.0000E+00
    -49.742  0.1505E-27  0.8697E-28  0.6479E-28  0.6060E-28  0.0000E+00  0.0000E+00  0.0000E+00  0.0000E+00  0.0000E+00
    -49.538  0.1229E-16  0.7159E-17  0.5285E-17  0.4981E-17  0.0000E+00  0.0000E+00  0.0000E+00  0.0000E+00  0.0000E+00
    -49.334  0.1578E-09  0.9351E-10  0.6748E-10  0.6458E-10  0.0000E+00  0.0000E+00  0.0000E+00  0.0000E+00  0.0000E+00
    -49.130 -0.7271E-07 -0.4344E-07 -0.3063E-07 -0.2935E-07  0.0000E+00  0.0000E+00  0.0000E+00  0.0000E+00  0.0000E+00
    -48.926  0.8062E-05  0.4855E-05  0.3453E-05  0.3367E-05  0.0000E+00  0.0000E+00  0.0000E+00  0.0000E+00  0.0000E+00
    -48.722  0.1721E-05  0.9027E-06  0.7257E-06  0.1062E-05  0.0000E+00  0.0000E+00  0.0000E+00  0.0000E+00  0.0000E+00
    -48.518  0.4200E-07  0.1447E-07  0.1155E-07  0.5561E-07  0.0000E+00  0.0000E+00  0.0000E+00  0.0000E+00  0.0000E+00
    -48.315  0.4343E-09  0.3508E-10  0.4360E-10  0.9886E-09  0.0000E+00  0.0000E+00  0.0000E+00  0.0000E+00  0.0000E+00
    -48.111  0.3258E-14  0.2552E-15  0.3208E-15  0.7447E-14  0.0000E+00  0.0000E+00  0.0000E+00  0.0000E+00  0.0000E+00
    -47.907  0.0000E+00  0.0000E+00  0.0000E+00  0.0000E+00  0.0000E+00  0.0000E+00  0.0000E+00  0.0000E+00  0.0000E+00
    -47.703  0.0000E+00  0.0000E+00  0.0000E+00  0.0000E+00  0.0000E+00  0.0000E+00  0.0000E+00  0.0000E+00  0.0000E+00
    -47.499  0.0000E+00  0.0000E+00  0.0000E+00  0.0000E+00  0.0000E+00  0.0000E+00  0.0000E+00  0.0000E+00  0.0000E+00
    -47.295  0.0000E+00  0.0000E+00  0.0000E+00  0.0000E+00  0.0000E+00  0.0000E+00  0.0000E+00  0.0000E+00  0.0000E+00
    -47.091  0.0000E+00  0.0000E+00  0.0000E+00  0.0000E+00  0.0000E+00  0.0000E+00  0.0000E+00  0.0000E+00  0.0000E+00
    -46.887  0.0000E+00  0.0000E+00  0.0000E+00  0.0000E+00  0.0000E+00  0.0000E+00  0.0000E+00  0.0000E+00  0.0000E+00
    -46.683  0.0000E+00  0.0000E+00  0.0000E+00  0.0000E+00  0.0000E+00  0.0000E+00  0.0000E+00  0.0000E+00  0.0000E+00
    -46.479  0.0000E+00  0.0000E+00  0.0000E+00  0.0000E+00  0.0000E+00  0.0000E+00  0.0000E+00  0.0000E+00  0.0000E+00
    -46.276  0.0000E+00  0.0000E+00  0.0000E+00  0.0000E+00  0.0000E+00  0.0000E+00  0.0000E+00  0.0000E+00  0.0000E+00
    -46.072  0.0000E+00  0.0000E+00  0.0000E+00  0.0000E+00  0.0000E+00  0.0000E+00  0.0000E+00  0.0000E+00  0.0000E+00
    -45.868  0.0000E+00  0.0000E+00  0.0000E+00  0.0000E+00  0.0000E+00  0.0000E+00  0.0000E+00  0.0000E+00  0.0000E+00
    -45.664  0.0000E+00  0.0000E+00  0.0000E+00  0.0000E+00  0.0000E+00  0.0000E+00  0.0000E+00  0.0000E+00  0.0000E+00
    -45.460  0.0000E+00  0.0000E+00  0.0000E+00  0.0000E+00  0.0000E+00  0.0000E+00  0.0000E+00  0.0000E+00  0.0000E+00
    -45.256  0.0000E+00  0.0000E+00  0.0000E+00  0.0000E+00  0.0000E+00  0.0000E+00  0.0000E+00  0.0000E+00  0.0000E+00
    -45.052  0.0000E+00  0.0000E+00  0.0000E+00  0.0000E+00  0.0000E+00  0.0000E+00  0.0000E+00  0.0000E+00  0.0000E+00
    -44.848  0.0000E+00  0.0000E+00  0.0000E+00  0.0000E+00  0.0000E+00  0.0000E+00  0.0000E+00  0.0000E+00  0.0000E+00
    -44.644  0.0000E+00  0.0000E+00  0.0000E+00  0.0000E+00  0.0000E+00  0.0000E+00  0.0000E+00  0.0000E+00  0.0000E+00
    -44.440  0.0000E+00  0.0000E+00  0.0000E+00  0.0000E+00  0.0000E+00  0.0000E+00  0.0000E+00  0.0000E+00  0.0000E+00
    -44.236  0.0000E+00  0.0000E+00  0.0000E+00  0.0000E+00  0.0000E+00  0.0000E+00  0.0000E+00  0.0000E+00  0.0000E+00
    -44.033  0.0000E+00  0.0000E+00  0.0000E+00  0.0000E+00  0.0000E+00  0.0000E+00  0.0000E+00  0.0000E+00  0.0000E+00
    -43.829  0.0000E+00  0.0000E+00  0.0000E+00  0.0000E+00  0.0000E+00  0.0000E+00  0.0000E+00  0.0000E+00  0.0000E+00
    -43.625  0.0000E+00  0.0000E+00  0.0000E+00  0.0000E+00  0.0000E+00  0.0000E+00  0.0000E+00  0.0000E+00  0.0000E+00
    -43.421  0.0000E+00  0.0000E+00  0.0000E+00  0.0000E+00  0.0000E+00  0.0000E+00  0.0000E+00  0.0000E+00  0.0000E+00
    -43.217  0.0000E+00  0.0000E+00  0.0000E+00  0.0000E+00  0.0000E+00  0.0000E+00  0.0000E+00  0.0000E+00  0.0000E+00
    -43.013  0.0000E+00  0.0000E+00  0.0000E+00  0.0000E+00  0.0000E+00  0.0000E+00  0.0000E+00  0.0000E+00  0.0000E+00
    -42.809  0.0000E+00  0.0000E+00  0.0000E+00  0.0000E+00  0.0000E+00  0.0000E+00  0.0000E+00  0.0000E+00  0.0000E+00
    -42.605  0.0000E+00  0.0000E+00  0.0000E+00  0.0000E+00  0.0000E+00  0.0000E+00  0.0000E+00  0.0000E+00  0.0000E+00
    -42.401  0.0000E+00  0.0000E+00  0.0000E+00  0.0000E+00  0.0000E+00  0.0000E+00  0.0000E+00  0.0000E+00  0.0000E+00
    -42.197  0.0000E+00  0.0000E+00  0.0000E+00  0.0000E+00  0.0000E+00  0.0000E+00  0.0000E+00  0.0000E+00  0.0000E+00
    -41.994  0.0000E+00  0.0000E+00  0.0000E+00  0.0000E+00  0.0000E+00  0.0000E+00  0.0000E+00  0.0000E+00  0.0000E+00
    -41.790  0.0000E+00  0.0000E+00  0.0000E+00  0.0000E+00  0.0000E+00  0.0000E+00  0.0000E+00  0.0000E+00  0.0000E+00
    -41.586  0.0000E+00  0.0000E+00  0.0000E+00  0.0000E+00  0.0000E+00  0.0000E+00  0.0000E+00  0.0000E+00  0.0000E+00
    -41.382  0.0000E+00  0.0000E+00  0.0000E+00  0.0000E+00  0.0000E+00  0.0000E+00  0.0000E+00  0.0000E+00  0.0000E+00
    -41.178  0.0000E+00  0.0000E+00  0.0000E+00  0.0000E+00  0.0000E+00  0.0000E+00  0.0000E+00  0.0000E+00  0.0000E+00
    -40.974  0.0000E+00  0.0000E+00  0.0000E+00  0.0000E+00  0.0000E+00  0.0000E+00  0.0000E+00  0.0000E+00  0.0000E+00
    -40.770  0.0000E+00  0.0000E+00  0.0000E+00  0.0000E+00  0.0000E+00  0.0000E+00  0.0000E+00  0.0000E+00  0.0000E+00
    -40.566  0.0000E+00  0.0000E+00  0.0000E+00  0.0000E+00  0.0000E+00  0.0000E+00  0.0000E+00  0.0000E+00  0.0000E+00
    -40.362  0.0000E+00  0.0000E+00  0.0000E+00  0.0000E+00  0.0000E+00  0.0000E+00  0.0000E+00  0.0000E+00  0.0000E+00
    -40.158  0.0000E+00  0.0000E+00  0.0000E+00  0.0000E+00  0.0000E+00  0.0000E+00  0.0000E+00  0.0000E+00  0.0000E+00
    -39.954  0.0000E+00  0.0000E+00  0.0000E+00  0.0000E+00  0.0000E+00  0.0000E+00  0.0000E+00  0.0000E+00  0.0000E+00
    -39.751  0.0000E+00  0.0000E+00  0.0000E+00  0.0000E+00  0.0000E+00  0.0000E+00  0.0000E+00  0.0000E+00  0.0000E+00
    -39.547  0.0000E+00  0.0000E+00  0.0000E+00  0.0000E+00  0.0000E+00  0.0000E+00  0.0000E+00  0.0000E+00  0.0000E+00
    -39.343  0.0000E+00  0.0000E+00  0.0000E+00  0.0000E+00  0.0000E+00  0.0000E+00  0.0000E+00  0.0000E+00  0.0000E+00
    -39.139  0.0000E+00  0.0000E+00  0.0000E+00  0.0000E+00  0.0000E+00  0.0000E+00  0.0000E+00  0.0000E+00  0.0000E+00
    -38.935  0.0000E+00  0.0000E+00  0.0000E+00  0.0000E+00  0.0000E+00  0.0000E+00  0.0000E+00  0.0000E+00  0.0000E+00
    -38.731  0.0000E+00  0.0000E+00  0.0000E+00  0.0000E+00  0.0000E+00  0.0000E+00  0.0000E+00  0.0000E+00  0.0000E+00
    -38.527  0.0000E+00  0.0000E+00  0.0000E+00  0.0000E+00  0.0000E+00  0.0000E+00  0.0000E+00  0.0000E+00  0.0000E+00
    -38.323  0.0000E+00  0.0000E+00  0.0000E+00  0.0000E+00  0.0000E+00  0.0000E+00  0.0000E+00  0.0000E+00  0.0000E+00
    -38.119  0.0000E+00  0.0000E+00  0.0000E+00  0.0000E+00  0.0000E+00  0.0000E+00  0.0000E+00  0.0000E+00  0.0000E+00
    -37.915  0.0000E+00  0.0000E+00  0.0000E+00  0.0000E+00  0.0000E+00  0.0000E+00  0.0000E+00  0.0000E+00  0.0000E+00
    -37.711  0.0000E+00  0.0000E+00  0.0000E+00  0.0000E+00  0.0000E+00  0.0000E+00  0.0000E+00  0.0000E+00  0.0000E+00
    -37.508  0.0000E+00  0.0000E+00  0.0000E+00  0.0000E+00  0.0000E+00  0.0000E+00  0.0000E+00  0.0000E+00  0.0000E+00
    -37.304  0.0000E+00  0.0000E+00  0.0000E+00  0.0000E+00  0.0000E+00  0.0000E+00  0.0000E+00  0.0000E+00  0.0000E+00
    -37.100  0.0000E+00  0.0000E+00  0.0000E+00  0.0000E+00  0.0000E+00  0.0000E+00  0.0000E+00  0.0000E+00  0.0000E+00
    -36.896  0.0000E+00  0.0000E+00  0.0000E+00  0.0000E+00  0.0000E+00  0.0000E+00  0.0000E+00  0.0000E+00  0.0000E+00
    -36.692  0.0000E+00  0.0000E+00  0.0000E+00  0.0000E+00  0.0000E+00  0.0000E+00  0.0000E+00  0.0000E+00  0.0000E+00
    -36.488  0.0000E+00  0.0000E+00  0.0000E+00  0.0000E+00  0.0000E+00  0.0000E+00  0.0000E+00  0.0000E+00  0.0000E+00
    -36.284  0.0000E+00  0.0000E+00  0.0000E+00  0.0000E+00  0.0000E+00  0.0000E+00  0.0000E+00  0.0000E+00  0.0000E+00
    -36.080  0.0000E+00  0.0000E+00  0.0000E+00  0.0000E+00  0.0000E+00  0.0000E+00  0.0000E+00  0.0000E+00  0.0000E+00
    -35.876  0.0000E+00  0.0000E+00  0.0000E+00  0.0000E+00  0.0000E+00  0.0000E+00  0.0000E+00  0.0000E+00  0.0000E+00
    -35.672  0.0000E+00  0.0000E+00  0.0000E+00  0.0000E+00  0.0000E+00  0.0000E+00  0.0000E+00  0.0000E+00  0.0000E+00
    -35.469  0.0000E+00  0.0000E+00  0.0000E+00  0.0000E+00  0.0000E+00  0.0000E+00  0.0000E+00  0.0000E+00  0.0000E+00
    -35.265  0.0000E+00  0.0000E+00  0.0000E+00  0.0000E+00  0.0000E+00  0.0000E+00  0.0000E+00  0.0000E+00  0.0000E+00
    -35.061  0.0000E+00  0.0000E+00  0.0000E+00  0.0000E+00  0.0000E+00  0.0000E+00  0.0000E+00  0.0000E+00  0.0000E+00
    -34.857  0.0000E+00  0.0000E+00  0.0000E+00  0.0000E+00  0.0000E+00  0.0000E+00  0.0000E+00  0.0000E+00  0.0000E+00
    -34.653  0.0000E+00  0.0000E+00  0.0000E+00  0.0000E+00  0.0000E+00  0.0000E+00  0.0000E+00  0.0000E+00  0.0000E+00
    -34.449  0.0000E+00  0.0000E+00  0.0000E+00  0.0000E+00  0.0000E+00  0.0000E+00  0.0000E+00  0.0000E+00  0.0000E+00
    -34.245  0.0000E+00  0.0000E+00  0.0000E+00  0.0000E+00  0.0000E+00  0.0000E+00  0.0000E+00  0.0000E+00  0.0000E+00
    -34.041  0.0000E+00  0.0000E+00  0.0000E+00  0.0000E+00  0.0000E+00  0.0000E+00  0.0000E+00  0.0000E+00  0.0000E+00
    -33.837  0.0000E+00  0.0000E+00  0.0000E+00  0.0000E+00  0.0000E+00  0.0000E+00  0.0000E+00  0.0000E+00  0.0000E+00
    -33.633  0.0000E+00  0.0000E+00  0.0000E+00  0.0000E+00  0.0000E+00  0.0000E+00  0.0000E+00  0.0000E+00  0.0000E+00
    -33.429  0.0000E+00  0.0000E+00  0.0000E+00  0.0000E+00  0.0000E+00  0.0000E+00  0.0000E+00  0.0000E+00  0.0000E+00
    -33.226  0.0000E+00  0.0000E+00  0.0000E+00  0.0000E+00  0.0000E+00  0.0000E+00  0.0000E+00  0.0000E+00  0.0000E+00
    -33.022  0.0000E+00  0.0000E+00  0.0000E+00  0.0000E+00  0.0000E+00  0.0000E+00  0.0000E+00  0.0000E+00  0.0000E+00
    -32.818  0.0000E+00  0.0000E+00  0.0000E+00  0.0000E+00  0.0000E+00  0.0000E+00  0.0000E+00  0.0000E+00  0.0000E+00
    -32.614  0.0000E+00  0.0000E+00  0.0000E+00  0.0000E+00  0.0000E+00  0.0000E+00  0.0000E+00  0.0000E+00  0.0000E+00
    -32.410  0.0000E+00  0.0000E+00  0.0000E+00  0.0000E+00  0.0000E+00  0.0000E+00  0.0000E+00  0.0000E+00  0.0000E+00
    -32.206  0.0000E+00  0.0000E+00  0.0000E+00  0.0000E+00  0.0000E+00  0.0000E+00  0.0000E+00  0.0000E+00  0.0000E+00
    -32.002  0.0000E+00  0.0000E+00  0.0000E+00  0.0000E+00  0.0000E+00  0.0000E+00  0.0000E+00  0.0000E+00  0.0000E+00
    -31.798  0.0000E+00  0.0000E+00  0.0000E+00  0.0000E+00  0.0000E+00  0.0000E+00  0.0000E+00  0.0000E+00  0.0000E+00
    -31.594  0.0000E+00  0.0000E+00  0.0000E+00  0.0000E+00  0.0000E+00  0.0000E+00  0.0000E+00  0.0000E+00  0.0000E+00
    -31.390  0.0000E+00  0.0000E+00  0.0000E+00  0.0000E+00  0.0000E+00  0.0000E+00  0.0000E+00  0.0000E+00  0.0000E+00
    -31.187  0.0000E+00  0.0000E+00  0.0000E+00  0.0000E+00  0.0000E+00  0.0000E+00  0.0000E+00  0.0000E+00  0.0000E+00
    -30.983  0.0000E+00  0.0000E+00  0.0000E+00  0.0000E+00  0.0000E+00  0.0000E+00  0.0000E+00  0.0000E+00  0.0000E+00
    -30.779  0.0000E+00  0.0000E+00  0.0000E+00  0.0000E+00  0.0000E+00  0.0000E+00  0.0000E+00  0.0000E+00  0.0000E+00
    -30.575  0.0000E+00  0.0000E+00  0.0000E+00  0.0000E+00  0.0000E+00  0.0000E+00  0.0000E+00  0.0000E+00  0.0000E+00
    -30.371  0.0000E+00  0.0000E+00  0.0000E+00  0.0000E+00  0.0000E+00  0.0000E+00  0.0000E+00  0.0000E+00  0.0000E+00
    -30.167  0.0000E+00  0.0000E+00  0.0000E+00  0.0000E+00  0.0000E+00  0.0000E+00  0.0000E+00  0.0000E+00  0.0000E+00
    -29.963  0.0000E+00  0.0000E+00  0.0000E+00  0.0000E+00  0.0000E+00  0.0000E+00  0.0000E+00  0.0000E+00  0.0000E+00
    -29.759  0.0000E+00  0.0000E+00  0.0000E+00  0.0000E+00  0.0000E+00  0.0000E+00  0.0000E+00  0.0000E+00  0.0000E+00
    -29.555  0.0000E+00  0.0000E+00  0.0000E+00  0.0000E+00  0.0000E+00  0.0000E+00  0.0000E+00  0.0000E+00  0.0000E+00
    -29.351  0.0000E+00  0.0000E+00  0.0000E+00  0.0000E+00  0.0000E+00  0.0000E+00  0.0000E+00  0.0000E+00  0.0000E+00
    -29.147  0.0000E+00  0.0000E+00  0.0000E+00  0.0000E+00  0.0000E+00  0.0000E+00  0.0000E+00  0.0000E+00  0.0000E+00
    -28.944  0.0000E+00  0.0000E+00  0.0000E+00  0.0000E+00  0.0000E+00  0.0000E+00  0.0000E+00  0.0000E+00  0.0000E+00
    -28.740  0.0000E+00  0.0000E+00  0.0000E+00  0.0000E+00  0.0000E+00  0.0000E+00  0.0000E+00  0.0000E+00  0.0000E+00
    -28.536  0.0000E+00  0.0000E+00  0.0000E+00  0.0000E+00  0.0000E+00  0.0000E+00  0.0000E+00  0.0000E+00  0.0000E+00
    -28.332  0.0000E+00  0.0000E+00  0.0000E+00  0.0000E+00  0.0000E+00  0.0000E+00  0.0000E+00  0.0000E+00  0.0000E+00
    -28.128  0.0000E+00  0.0000E+00  0.0000E+00  0.0000E+00  0.0000E+00  0.0000E+00  0.0000E+00  0.0000E+00  0.0000E+00
    -27.924  0.0000E+00  0.0000E+00  0.0000E+00  0.0000E+00  0.0000E+00  0.0000E+00  0.0000E+00  0.0000E+00  0.0000E+00
    -27.720  0.0000E+00  0.0000E+00  0.0000E+00  0.0000E+00  0.0000E+00  0.0000E+00  0.0000E+00  0.0000E+00  0.0000E+00
    -27.516  0.0000E+00  0.0000E+00  0.0000E+00  0.0000E+00  0.0000E+00  0.0000E+00  0.0000E+00  0.0000E+00  0.0000E+00
    -27.312  0.0000E+00  0.0000E+00  0.0000E+00  0.0000E+00  0.0000E+00  0.0000E+00  0.0000E+00  0.0000E+00  0.0000E+00
    -27.108  0.0000E+00  0.0000E+00  0.0000E+00  0.0000E+00  0.0000E+00  0.0000E+00  0.0000E+00  0.0000E+00  0.0000E+00
    -26.904  0.0000E+00  0.0000E+00  0.0000E+00  0.0000E+00  0.0000E+00  0.0000E+00  0.0000E+00  0.0000E+00  0.0000E+00
    -26.701  0.0000E+00  0.0000E+00  0.0000E+00  0.0000E+00  0.0000E+00  0.0000E+00  0.0000E+00  0.0000E+00  0.0000E+00
    -26.497  0.0000E+00  0.0000E+00  0.0000E+00  0.0000E+00  0.0000E+00  0.0000E+00  0.0000E+00  0.0000E+00  0.0000E+00
    -26.293  0.6331E-42  0.1916E-42  0.1126E-42  0.3883E-42  0.0000E+00  0.0000E+00  0.0000E+00  0.0000E+00  0.0000E+00
    -26.089  0.4475E-27  0.1366E-27  0.7985E-28  0.2776E-27  0.0000E+00  0.0000E+00  0.0000E+00  0.0000E+00  0.0000E+00
    -25.885  0.6090E-16  0.1874E-16  0.1093E-16  0.3826E-16  0.0000E+00  0.0000E+00  0.0000E+00  0.0000E+00  0.0000E+00
    -25.681  0.1177E-08  0.3648E-09  0.2132E-09  0.7500E-09  0.0000E+00  0.0000E+00  0.0000E+00  0.0000E+00  0.0000E+00
    -25.477 -0.7012E-06 -0.2135E-06 -0.1236E-06 -0.4547E-06  0.0000E+00  0.0000E+00  0.0000E+00  0.0000E+00  0.0000E+00
    -25.273  0.5593E-04  0.1705E-04  0.1068E-04  0.3673E-04  0.0000E+00  0.0000E+00  0.0000E+00  0.0000E+00  0.0000E+00
    -25.069  0.4152E-03  0.2178E-03  0.1236E-03  0.1175E-03  0.0000E+00  0.0000E+00  0.0000E+00  0.0000E+00  0.0000E+00
    -24.865  0.2519E-03  0.9783E-04  0.1072E-03  0.1119E-03  0.0000E+00  0.0000E+00  0.0000E+00  0.0000E+00  0.0000E+00
    -24.662  0.3254E-04  0.1376E-04  0.8879E-05  0.2371E-04  0.0000E+00  0.0000E+00  0.0000E+00  0.0000E+00  0.0000E+00
    -24.458  0.1304E-05  0.1545E-05  0.7335E-06  0.3825E-06  0.0000E+00  0.0000E+00  0.0000E+00  0.0000E+00  0.0000E+00
    -24.254  0.2275E-07  0.2236E-07  0.1097E-07  0.9788E-08  0.0000E+00  0.0000E+00  0.0000E+00  0.0000E+00  0.0000E+00
    -24.050  0.5395E-12  0.5571E-12  0.2709E-12  0.2120E-12  0.0000E+00  0.0000E+00  0.0000E+00  0.0000E+00  0.0000E+00
    -23.846  0.0000E+00  0.0000E+00  0.0000E+00  0.0000E+00  0.0000E+00  0.0000E+00  0.0000E+00  0.0000E+00  0.0000E+00
    -23.642  0.0000E+00  0.0000E+00  0.0000E+00  0.0000E+00  0.0000E+00  0.0000E+00  0.0000E+00  0.0000E+00  0.0000E+00
    -23.438  0.0000E+00  0.0000E+00  0.0000E+00  0.0000E+00  0.0000E+00  0.0000E+00  0.0000E+00  0.0000E+00  0.0000E+00
    -23.234  0.0000E+00  0.0000E+00  0.0000E+00  0.0000E+00  0.0000E+00  0.0000E+00  0.0000E+00  0.0000E+00  0.0000E+00
    -23.030  0.0000E+00  0.0000E+00  0.0000E+00  0.0000E+00  0.0000E+00  0.0000E+00  0.0000E+00  0.0000E+00  0.0000E+00
    -22.826  0.0000E+00  0.0000E+00  0.0000E+00  0.0000E+00  0.0000E+00  0.0000E+00  0.0000E+00  0.0000E+00  0.0000E+00
    -22.622  0.0000E+00  0.0000E+00  0.0000E+00  0.0000E+00  0.0000E+00  0.0000E+00  0.0000E+00  0.0000E+00  0.0000E+00
    -22.419  0.0000E+00  0.0000E+00  0.0000E+00  0.0000E+00  0.0000E+00  0.0000E+00  0.0000E+00  0.0000E+00  0.0000E+00
    -22.215  0.0000E+00  0.0000E+00  0.0000E+00  0.0000E+00  0.0000E+00  0.0000E+00  0.0000E+00  0.0000E+00  0.0000E+00
    -22.011  0.0000E+00  0.0000E+00  0.0000E+00  0.0000E+00  0.0000E+00  0.0000E+00  0.0000E+00  0.0000E+00  0.0000E+00
    -21.807  0.0000E+00  0.0000E+00  0.0000E+00  0.0000E+00  0.0000E+00  0.0000E+00  0.0000E+00  0.0000E+00  0.0000E+00
    -21.603  0.0000E+00  0.0000E+00  0.0000E+00  0.0000E+00  0.0000E+00  0.0000E+00  0.0000E+00  0.0000E+00  0.0000E+00
    -21.399  0.0000E+00  0.0000E+00  0.0000E+00  0.0000E+00  0.0000E+00  0.0000E+00  0.0000E+00  0.0000E+00  0.0000E+00
    -21.195  0.0000E+00  0.0000E+00  0.0000E+00  0.0000E+00  0.0000E+00  0.0000E+00  0.0000E+00  0.0000E+00  0.0000E+00
    -20.991  0.0000E+00  0.0000E+00  0.0000E+00  0.0000E+00  0.0000E+00  0.0000E+00  0.0000E+00  0.0000E+00  0.0000E+00
    -20.787  0.0000E+00  0.0000E+00  0.0000E+00  0.0000E+00  0.0000E+00  0.0000E+00  0.0000E+00  0.0000E+00  0.0000E+00
    -20.583  0.0000E+00  0.0000E+00  0.0000E+00  0.0000E+00  0.0000E+00  0.0000E+00  0.0000E+00  0.0000E+00  0.0000E+00
    -20.380  0.0000E+00  0.0000E+00  0.0000E+00  0.0000E+00  0.0000E+00  0.0000E+00  0.0000E+00  0.0000E+00  0.0000E+00
    -20.176  0.0000E+00  0.0000E+00  0.0000E+00  0.0000E+00  0.0000E+00  0.0000E+00  0.0000E+00  0.0000E+00  0.0000E+00
    -19.972  0.0000E+00  0.0000E+00  0.0000E+00  0.0000E+00  0.0000E+00  0.0000E+00  0.0000E+00  0.0000E+00  0.0000E+00
    -19.768  0.0000E+00  0.0000E+00  0.0000E+00  0.0000E+00  0.0000E+00  0.0000E+00  0.0000E+00  0.0000E+00  0.0000E+00