 vasp.5.4.1 05Feb16 (build Mar 19 2020 08:54:17) complex                        
  
 executed on           IFC91_ompi date 2021.11.11  21:14:35
 running on   96 total cores
 distrk:  each k-point on   96 cores,    1 groups
 distr:  one band on NCORES_PER_BAND=  24 cores,    4 groups


--------------------------------------------------------------------------------------------------------


 INCAR:
 POTCAR:    PAW_PBE Al 04Jan2001                  
 POTCAR:    PAW_PBE Nb_sv 25May2007               
 POTCAR:    PAW_PBE Ta 17Jan2003                  
 POTCAR:    PAW_PBE Ti 08Apr2002                  
 POTCAR:   PAW_PBE Zr 08Apr2002                   
 POTCAR:    PAW_PBE O 08Apr2002                   

 ----------------------------------------------------------------------------- 
|                                                                             |
|           W    W    AA    RRRRR   N    N  II  N    N   GGGG   !!!           |
|           W    W   A  A   R    R  NN   N  II  NN   N  G    G  !!!           |
|           W    W  A    A  R    R  N N  N  II  N N  N  G       !!!           |
|           W WW W  AAAAAA  RRRRR   N  N N  II  N  N N  G  GGG   !            |
|           WW  WW  A    A  R   R   N   NN  II  N   NN  G    G                |
|           W    W  A    A  R    R  N    N  II  N    N   GGGG   !!!           |
|                                                                             |
|      For optimal performance we recommend to set                            |
|        NCORE= 4 - approx SQRT( number of cores)                             |
|      NCORE specifies how many cores store one orbital (NPAR=cpu/NCORE).     |
|      This setting can  greatly improve the performance of VASP for DFT.     |
|      The default, NPAR=number of cores might be grossly inefficient         |
|      on modern multi-core architectures or massively parallel machines.     |
|      Do your own testing !!!!                                               |
|      Unfortunately you need to use the default for GW and RPA calculations. |
|      (for HF NCORE is supported but not extensively tested yet)             |
|                                                                             |
 ----------------------------------------------------------------------------- 

 POTCAR:    PAW_PBE Al 04Jan2001                  
   VRHFIN =Al: s2p1                                                             
   LEXCH  = PE                                                                  
   EATOM  =    53.5387 eV,    3.9350 Ry                                         
                                                                                
   TITEL  = PAW_PBE Al 04Jan2001                                                
   LULTRA =        F    use ultrasoft PP ?                                      
   IUNSCR =        1    unscreen: 0-lin 1-nonlin 2-no                           
   RPACOR =    1.500    partial core radius                                     
   POMASS =   26.981; ZVAL   =    3.000    mass and valenz                      
   RCORE  =    1.900    outmost cutoff radius                                   
   RWIGS  =    2.650; RWIGS  =    1.402    wigner-seitz radius (au A)           
   ENMAX  =  240.300; ENMIN  =  180.225 eV                                      
   ICORE  =        2    local potential                                         
   LCOR   =        T    correct aug charges                                     
   LPAW   =        T    paw PP                                                  
   EAUG   =  291.052                                                            
   DEXC   =    0.000                                                            
   RMAX   =    1.939    core radius for proj-oper                               
   RAUG   =    1.300    factor for augmentation sphere                          
   RDEP   =    1.966    radius for radial grids                                 
   RDEPT  =    1.856    core radius for aug-charge                              
                                                                                
   Atomic configuration                                                         
    6 entries                                                                   
     n  l   j            E        occ.                                          
     1  0  0.50     -1511.1048   2.0000                                         
     2  0  0.50      -108.1629   2.0000                                         
     2  1  1.50       -69.6402   6.0000                                         
     3  0  0.50        -7.7528   2.0000                                         
     3  1  1.50        -2.7121   1.0000                                         
     3  2  2.50        -2.7212   0.0000                                         
   Description                                                                  
     l       E           TYP  RCUT    TYP  RCUT                                 
     0     -7.7528455     23  1.900                                             
     0     -3.3096929     23  1.900                                             
     1     -2.7120682     23  1.900                                             
     1     13.6058260     23  1.900                                             
     2     -2.7211652      7  1.900                                             
  local pseudopotential read in
  partial core-charges read in
  partial kinetic energy density read in
  atomic valenz-charges read in
  non local Contribution for L=           0  read in
    real space projection operators read in
  non local Contribution for L=           0  read in
    real space projection operators read in
  non local Contribution for L=           1  read in
    real space projection operators read in
  non local Contribution for L=           1  read in
    real space projection operators read in
    PAW grid and wavefunctions read in
 
   number of l-projection  operators is LMAX  =           4
   number of lm-projection operators is LMMAX =           8
 
 POTCAR:    PAW_PBE Nb_sv 25May2007               
   VRHFIN =Nb: 4p5s4d                                                           
   LEXCH  = PE                                                                  
   EATOM  =  1555.1913 eV,  114.3033 Ry                                         
                                                                                
   TITEL  = PAW_PBE Nb_sv 25May2007                                             
   LULTRA =        F    use ultrasoft PP ?                                      
   IUNSCR =        1    unscreen: 0-lin 1-nonlin 2-no                           
   RPACOR =    1.800    partial core radius                                     
   POMASS =   92.910; ZVAL   =   13.000    mass and valenz                      
   RCORE  =    2.400    outmost cutoff radius                                   
   RWIGS  =    2.400; RWIGS  =    1.270    wigner-seitz radius (au A)           
   ENMAX  =  293.235; ENMIN  =  219.927 eV                                      
   ICORE  =        3    local potential                                         
   LCOR   =        T    correct aug charges                                     
   LPAW   =        T    paw PP                                                  
   EAUG   =  455.659                                                            
   DEXC   =    0.000                                                            
   RMAX   =    2.456    core radius for proj-oper                               
   RAUG   =    1.300    factor for augmentation sphere                          
   RDEP   =    2.451    radius for radial grids                                 
   RDEPT  =    1.956    core radius for aug-charge                              
                                                                                
   Atomic configuration                                                         
   11 entries                                                                   
     n  l   j            E        occ.                                          
     1  0  0.50    -18805.2457   2.0000                                         
     2  0  0.50     -2630.2869   2.0000                                         
     2  1  1.50     -2348.4046   6.0000                                         
     3  0  0.50      -438.8757   2.0000                                         
     3  1  1.50      -346.7588   6.0000                                         
     3  2  2.50      -196.2560  10.0000                                         
     4  0  0.50       -58.3859   2.0000                                         
     5  0  0.50        -3.9816   1.0000                                         
     4  1  1.50       -34.5141   6.0000                                         
     4  2  2.50        -3.0408   4.0000                                         
     4  3  2.50        -1.3606   0.0000                                         
   Description                                                                  
     l       E           TYP  RCUT    TYP  RCUT                                 
     0    -58.3859094     23  2.200                                             
     0     -3.9816262     23  2.200                                             
     1    -34.5140738     23  2.200                                             
     1     13.6058260     23  2.200                                             
     2     -3.0408010     23  2.200                                             
     2     -0.1283038     23  2.200                                             
     3     -1.3605826     23  2.400                                             
  local pseudopotential read in
  partial core-charges read in
  partial kinetic energy density read in
  atomic valenz-charges read in
  non local Contribution for L=           0  read in
    real space projection operators read in
  non local Contribution for L=           0  read in
    real space projection operators read in
  non local Contribution for L=           1  read in
    real space projection operators read in
  non local Contribution for L=           1  read in
    real space projection operators read in
  non local Contribution for L=           2  read in
    real space projection operators read in
  non local Contribution for L=           2  read in
    real space projection operators read in
    PAW grid and wavefunctions read in
 
   number of l-projection  operators is LMAX  =           6
   number of lm-projection operators is LMMAX =          18
 
 POTCAR:    PAW_PBE Ta 17Jan2003                  
   VRHFIN =Ta:  6s5d                                                            
   LEXCH  = PE                                                                  
   EATOM  =   130.6506 eV,    9.6025 Ry                                         
                                                                                
   TITEL  = PAW_PBE Ta 17Jan2003                                                
   LULTRA =        F    use ultrasoft PP ?                                      
   IUNSCR =        1    unscreen: 0-lin 1-nonlin 2-no                           
   RPACOR =    2.330    partial core radius                                     
   POMASS =  180.948; ZVAL   =    5.000    mass and valenz                      
   RCORE  =    2.900    outmost cutoff radius                                   
   RWIGS  =    2.840; RWIGS  =    1.503    wigner-seitz radius (au A)           
   ENMAX  =  223.667; ENMIN  =  167.750 eV                                      
   RCLOC  =    2.205    cutoff for local pot                                    
   LCOR   =        T    correct aug charges                                     
   LPAW   =        T    paw PP                                                  
   EAUG   =  332.075                                                            
   DEXC   =    0.000                                                            
   RMAX   =    2.970    core radius for proj-oper                               
   RAUG   =    1.300    factor for augmentation sphere                          
   RDEP   =    3.060    radius for radial grids                                 
   RDEPT  =    2.354    core radius for aug-charge                              
                                                                                
   Atomic configuration                                                         
   16 entries                                                                   
     n  l   j            E        occ.                                          
     1  0  0.50    -67341.2807   2.0000                                         
     2  0  0.50    -11566.9376   2.0000                                         
     2  1  1.50    -10134.1182   6.0000                                         
     3  0  0.50     -2648.5620   2.0000                                         
     3  1  1.50     -2222.6012   6.0000                                         
     3  2  2.50     -1726.3120  10.0000                                         
     4  0  0.50      -538.6961   2.0000                                         
     4  1  1.50      -399.0129   6.0000                                         
     4  2  2.50      -220.3959  10.0000                                         
     4  3  3.50       -23.0374  14.0000                                         
     5  0  0.50       -71.2901   2.0000                                         
     5  1  1.50       -37.8225   6.0000                                         
     5  2  2.50        -2.6455   4.0000                                         
     6  0  0.50        -4.9623   1.0000                                         
     6  1  1.50        -1.3606   0.0000                                         
     5  3  2.50        -1.3606   0.0000                                         
   Description                                                                  
     l       E           TYP  RCUT    TYP  RCUT                                 
     2     -2.6455043     23  2.500                                             
     2     -0.6258895     23  2.500                                             
     0     -4.9622780     23  2.500                                             
     0      4.7531321     23  2.500                                             
     1     -1.3605826     23  2.900                                             
     1     27.2116520     23  2.900                                             
  local pseudopotential read in
  partial core-charges read in
  partial kinetic energy density read in
  atomic valenz-charges read in
  non local Contribution for L=           2  read in
    real space projection operators read in
  non local Contribution for L=           2  read in
    real space projection operators read in
  non local Contribution for L=           0  read in
    real space projection operators read in
  non local Contribution for L=           0  read in
    real space projection operators read in
  non local Contribution for L=           1  read in
    real space projection operators read in
  non local Contribution for L=           1  read in
    real space projection operators read in
    PAW grid and wavefunctions read in
 
   number of l-projection  operators is LMAX  =           6
   number of lm-projection operators is LMMAX =          18
 
 POTCAR:    PAW_PBE Ti 08Apr2002                  
   VRHFIN =Ti: d3 s1                                                            
   LEXCH  = PE                                                                  
   EATOM  =    94.7928 eV,    6.9671 Ry                                         
                                                                                
   TITEL  = PAW_PBE Ti 08Apr2002                                                
   LULTRA =        F    use ultrasoft PP ?                                      
   IUNSCR =        1    unscreen: 0-lin 1-nonlin 2-no                           
   RPACOR =    2.200    partial core radius                                     
   POMASS =   47.880; ZVAL   =    4.000    mass and valenz                      
   RCORE  =    2.800    outmost cutoff radius                                   
   RWIGS  =    2.500; RWIGS  =    1.323    wigner-seitz radius (au A)           
   ENMAX  =  178.330; ENMIN  =  133.747 eV                                      
   RCLOC  =    2.215    cutoff for local pot                                    
   LCOR   =        T    correct aug charges                                     
   LPAW   =        T    paw PP                                                  
   EAUG   =  328.883                                                            
   DEXC   =    0.000                                                            
   RMAX   =    2.868    core radius for proj-oper                               
   RAUG   =    1.300    factor for augmentation sphere                          
   RDEP   =    2.885    radius for radial grids                                 
   RDEPT  =    2.320    core radius for aug-charge                              
                                                                                
   Atomic configuration                                                         
    9 entries                                                                   
     n  l   j            E        occ.                                          
     1  0  0.50     -4865.3608   2.0000                                         
     2  0  0.50      -533.1367   2.0000                                         
     2  1  1.50      -440.5031   6.0000                                         
     3  0  0.50       -59.3186   2.0000                                         
     3  1  1.50       -35.7012   6.0000                                         
     3  2  2.50        -1.9157   3.0000                                         
     4  0  0.50        -3.7291   1.0000                                         
     4  1  1.50        -4.0817   0.0000                                         
     4  3  2.50        -1.3606   0.0000                                         
   Description                                                                  
     l       E           TYP  RCUT    TYP  RCUT                                 
     2     -1.9156924     23  2.800                                             
     2     -0.4062961     23  2.800                                             
     0     -3.7290832     23  2.800                                             
     0     20.4087390     23  2.800                                             
     1     -5.4423304     23  2.800                                             
  local pseudopotential read in
  partial core-charges read in
  partial kinetic energy density read in
  atomic valenz-charges read in
  non local Contribution for L=           2  read in
    real space projection operators read in
  non local Contribution for L=           2  read in
    real space projection operators read in
  non local Contribution for L=           0  read in
    real space projection operators read in
  non local Contribution for L=           0  read in
    real space projection operators read in
  non local Contribution for L=           1  read in
    real space projection operators read in
    PAW grid and wavefunctions read in
 
   number of l-projection  operators is LMAX  =           5
   number of lm-projection operators is LMMAX =          15
 
 POTCAR:   PAW_PBE Zr 08Apr2002                   
   VRHFIN =Zr: 5s4d5p                                                           
   LEXCH  = PE                                                                  
   EATOM  =    77.8472 eV,    5.7216 Ry                                         
                                                                                
   TITEL  = PAW_PBE Zr 08Apr2002                                                
   LULTRA =        F    use ultrasoft PP ?                                      
   IUNSCR =        1    unscreen: 0-lin 1-nonlin 2-no                           
   RPACOR =    2.200    partial core radius                                     
   POMASS =   91.224; ZVAL   =    4.000    mass and valenz                      
   RCORE  =    3.000    outmost cutoff radius                                   
   RWIGS  =    3.070; RWIGS  =    1.625    wigner-seitz radius (au A)           
   ENMAX  =  154.632; ENMIN  =  115.974 eV                                      
   RCLOC  =    2.213    cutoff for local pot                                    
   LCOR   =        T    correct aug charges                                     
   LPAW   =        T    paw PP                                                  
   EAUG   =  243.217                                                            
   DEXC   =    -.082                                                            
   RMAX   =    3.708    core radius for proj-oper                               
   RAUG   =    1.300    factor for augmentation sphere                          
   RDEP   =    3.146    radius for radial grids                                 
   QCUT   =   -3.371; QGAM   =    6.742    optimization parameters              
                                                                                
   Description                                                                  
     l     E      TYP  RCUT    TYP  RCUT                                        
     2   .000     23  3.000                                                     
     2   .000     23  3.000                                                     
     0   .000     23  3.000                                                     
     0  2.000     23  3.000                                                     
     1  -.400     23  3.000                                                     
     3   .000      7   .000                                                     
  local pseudopotential read in
  partial core-charges read in
  atomic valenz-charges read in
  non local Contribution for L=           2  read in
    real space projection operators read in
  non local Contribution for L=           2  read in
    real space projection operators read in
  non local Contribution for L=           0  read in
    real space projection operators read in
  non local Contribution for L=           0  read in
    real space projection operators read in
  non local Contribution for L=           1  read in
    real space projection operators read in
    PAW grid and wavefunctions read in
 
   number of l-projection  operators is LMAX  =           5
   number of lm-projection operators is LMMAX =          15
 
 POTCAR:    PAW_PBE O 08Apr2002                   
   VRHFIN =O: s2p4                                                              
   LEXCH  = PE                                                                  
   EATOM  =   432.3788 eV,   31.7789 Ry                                         
                                                                                
   TITEL  = PAW_PBE O 08Apr2002                                                 
   LULTRA =        F    use ultrasoft PP ?                                      
   IUNSCR =        1    unscreen: 0-lin 1-nonlin 2-no                           
   RPACOR =    1.200    partial core radius                                     
   POMASS =   16.000; ZVAL   =    6.000    mass and valenz                      
   RCORE  =    1.520    outmost cutoff radius                                   
   RWIGS  =    1.550; RWIGS  =    0.820    wigner-seitz radius (au A)           
   ENMAX  =  400.000; ENMIN  =  300.000 eV                                      
   ICORE  =        2    local potential                                         
   LCOR   =        T    correct aug charges                                     
   LPAW   =        T    paw PP                                                  
   EAUG   =  605.392                                                            
   DEXC   =    0.000                                                            
   RMAX   =    1.553    core radius for proj-oper                               
   RAUG   =    1.300    factor for augmentation sphere                          
   RDEP   =    1.550    radius for radial grids                                 
   RDEPT  =    1.329    core radius for aug-charge                              
                                                                                
   Atomic configuration                                                         
    4 entries                                                                   
     n  l   j            E        occ.                                          
     1  0  0.50      -514.6923   2.0000                                         
     2  0  0.50       -23.9615   2.0000                                         
     2  1  0.50        -9.0305   4.0000                                         
     3  2  1.50        -9.5241   0.0000                                         
   Description                                                                  
     l       E           TYP  RCUT    TYP  RCUT                                 
     0    -23.9615318     23  1.200                                             
     0     -9.5240782     23  1.200                                             
     1     -9.0304911     23  1.520                                             
     1      8.1634956     23  1.520                                             
     2     -9.5240782      7  1.500                                             
  local pseudopotential read in
  partial core-charges read in
  partial kinetic energy density read in
  kinetic energy density of atom read in
  atomic valenz-charges read in
  non local Contribution for L=           0  read in
    real space projection operators read in
  non local Contribution for L=           0  read in
    real space projection operators read in
  non local Contribution for L=           1  read in
    real space projection operators read in
  non local Contribution for L=           1  read in
    real space projection operators read in
    PAW grid and wavefunctions read in
 
   number of l-projection  operators is LMAX  =           4
   number of lm-projection operators is LMMAX =           8
 
 Optimization of the real space projectors (new method)

 maximal supplied QI-value         = 19.84
 optimisation between [QCUT,QGAM] = [ 12.50, 25.00] = [ 43.76,175.03] Ry 
 Optimized for a Real-space Cutoff    1.06 Angstroem

   l    n(q)    QCUT    max X(q) W(low)/X(q) W(high)/X(q)  e(spline) 
   0      8    12.501   176.870    0.16E-03    0.12E-03    0.66E-07
   0      8    12.501   105.762    0.15E-03    0.12E-03    0.64E-07
   1      7    12.501    55.370    0.36E-03    0.38E-03    0.67E-07
   1      7    12.501    20.208    0.32E-03    0.35E-03    0.64E-07
 Optimization of the real space projectors (new method)

 maximal supplied QI-value         = 15.68
 optimisation between [QCUT,QGAM] = [ 12.55, 25.10] = [ 44.09,176.36] Ry 
 Optimized for a Real-space Cutoff    1.56 Angstroem

   l    n(q)    QCUT    max X(q) W(low)/X(q) W(high)/X(q)  e(spline) 
   0     12    12.548    10.201    0.21E-04    0.36E-05    0.83E-07
   0     12    12.548     8.174    0.31E-04    0.62E-05    0.15E-06
   1     11    12.548     3.488    0.79E-05    0.23E-04    0.21E-06
   1     11    12.548     4.917    0.56E-04    0.13E-03    0.11E-05
   2     11    12.548   153.744    0.25E-03    0.10E-03    0.15E-05
   2     11    12.548   126.342    0.25E-03    0.10E-03    0.15E-05
 Optimization of the real space projectors (new method)

 maximal supplied QI-value         = 12.85
 optimisation between [QCUT,QGAM] = [ 12.46, 25.06] = [ 43.51,175.83] Ry 
 Optimized for a Real-space Cutoff    1.56 Angstroem

   l    n(q)    QCUT    max X(q) W(low)/X(q) W(high)/X(q)  e(spline) 
   2     11    12.465    62.315    0.36E-03    0.20E-03    0.15E-05
   2     11    12.465    52.185    0.36E-03    0.20E-03    0.15E-05
   0     12    12.465   103.837    0.22E-04    0.37E-05    0.56E-06
   0     12    12.465    59.728    0.20E-04    0.34E-05    0.51E-06
   1     11    12.465    13.958    0.44E-03    0.81E-03    0.81E-05
   1     11    12.465     8.441    0.31E-03    0.56E-03    0.56E-05
 Optimization of the real space projectors (new method)

 maximal supplied QI-value         = 13.42
 optimisation between [QCUT,QGAM] = [ 12.48, 25.09] = [ 43.60,176.28] Ry 
 Optimized for a Real-space Cutoff    1.56 Angstroem

   l    n(q)    QCUT    max X(q) W(low)/X(q) W(high)/X(q)  e(spline) 
   2     11    12.478    49.363    0.45E-03    0.34E-03    0.89E-06
   2     11    12.478    47.669    0.44E-03    0.33E-03    0.87E-06
   0     12    12.478    26.374    0.17E-03    0.37E-04    0.21E-05
   0     12    12.478    11.549    0.13E-03    0.31E-04    0.17E-05
   1     11    12.478     9.492    0.91E-05    0.64E-04    0.34E-06
 Optimization of the real space projectors (new method)

 maximal supplied QI-value         = 12.47
 optimisation between [QCUT,QGAM] = [ 12.47, 25.07] = [ 43.56,175.99] Ry 
 Optimized for a Real-space Cutoff    1.70 Angstroem

   l    n(q)    QCUT    max X(q) W(low)/X(q) W(high)/X(q)  e(spline) 
   2     12    12.472     5.149    0.23E-04    0.12E-05    0.19E-06
   2     12    12.472    48.417    0.26E-03    0.15E-03    0.35E-05
   0     13    12.472    27.113    0.15E-04    0.46E-05    0.14E-06
   0     13    12.472    33.957    0.20E-04    0.33E-04    0.12E-05
   1     12    12.472    13.771    0.11E-04    0.23E-05    0.34E-06
 WARNING: PSMAXN for non-local potential too small
          PSMAXN should be >   12.5490833729506       NTYP=           5
 Optimization of the real space projectors (new method)

 maximal supplied QI-value         = 24.76
 optimisation between [QCUT,QGAM] = [ 12.38, 25.00] = [ 42.90,175.06] Ry 
 Optimized for a Real-space Cutoff    1.13 Angstroem

   l    n(q)    QCUT    max X(q) W(low)/X(q) W(high)/X(q)  e(spline) 
   0      8    12.378    20.381    0.16E-03    0.54E-05    0.27E-06
   0      8    12.378    15.268    0.17E-03    0.61E-05    0.29E-06
   1      8    12.378     5.964    0.38E-03    0.23E-03    0.28E-06
   1      8    12.378     5.382    0.33E-03    0.20E-03    0.25E-06
  PAW_PBE Al 04Jan2001                  :
 energy of atom  1       EATOM=  -53.5387
 kinetic energy error for atom=    0.0002 (will be added to EATOM!!)
  PAW_PBE Nb_sv 25May2007               :
 energy of atom  2       EATOM=-1555.1913
 kinetic energy error for atom=    0.0037 (will be added to EATOM!!)
  PAW_PBE Ta 17Jan2003                  :
 energy of atom  3       EATOM= -130.6506
 kinetic energy error for atom=    0.0004 (will be added to EATOM!!)
  PAW_PBE Ti 08Apr2002                  :
 energy of atom  4       EATOM=  -94.7928
 kinetic energy error for atom=    0.0001 (will be added to EATOM!!)
 PAW_PBE Zr 08Apr2002                   :
 energy of atom  5       EATOM=  -77.8472
 kinetic energy error for atom=    0.0001 (will be added to EATOM!!)
  PAW_PBE O 08Apr2002                   :
 energy of atom  6       EATOM= -432.3788
 kinetic energy error for atom=    0.0168 (will be added to EATOM!!)
 
 
 POSCAR: Al Nb Ta Ti Zr                          
  positions in direct lattice
  velocities in cartesian coordinates
 exchange correlation table for  LEXCH =        8
   RHO(1)=    0.500       N(1)  =     2000
   RHO(2)=  100.500       N(2)  =     4000
 


--------------------------------------------------------------------------------------------------------


 ion  position               nearest neighbor table
   1  0.623  0.867  0.376-  34 2.83  25 2.88  24 2.88   9 2.88  13 2.90   4 2.91  61 2.93  15 3.16
                            41 3.35  17 3.40
   2  0.622  0.393  0.546-  31 2.78  23 2.79  26 2.79  33 2.80  14 2.81   7 2.89  10 2.92  62 2.98
                            18 3.15  17 3.17   3 3.18  16 3.19  42 3.35
   3  0.617  0.633  0.626-  65 1.91  14 2.81  26 2.85  23 2.88  32 2.88  33 2.90   8 2.90  27 3.02
                             2 3.18  45 3.19
   4  0.618  0.084  0.450-  31 2.80  24 2.86  34 2.87  13 2.88   1 2.91  25 2.92   7 2.92  10 2.93
                            62 2.97  12 3.16  28 3.16  46 3.24
   5  0.977  0.638  0.554-  27 2.74  30 2.80  42 2.92  56 2.95  59 3.01  52 3.02  54 3.06  63 3.07
                            58 3.13  47 3.14  57 3.35
   6  0.980  0.121  0.378-  29 2.80  28 2.80  53 2.91  41 2.96  51 3.05  55 3.05  60 3.08  57 3.37

   7  0.729  0.343  0.458-  28 2.77  29 2.83  31 2.85   2 2.89  17 2.89  11 2.90   4 2.92  62 3.03
                            63 3.07  42 3.07
   8  0.720  0.897  0.622-  30 2.66  12 2.71  32 2.75  18 2.76  27 2.89   3 2.90  64 3.03  62 3.19

   9  0.517  0.608  0.367-  35 2.84  15 2.85  17 2.87   1 2.88  11 2.89  61 2.95  43 3.10
  10  0.513  0.132  0.540-  18 2.70  36 2.78  16 2.84  12 2.86   2 2.92   4 2.93  46 2.94  31 2.95
                            62 3.05  44 3.14
  11  0.618  0.343  0.369-  24 2.75  34 2.83  31 2.87   9 2.89   7 2.90  61 2.96  43 3.27
  12  0.618  0.874  0.538-   8 2.71  13 2.73  32 2.74  25 2.81  23 2.82  10 2.86  33 2.89  62 2.91
                             4 3.16  44 3.35
  13  0.742  0.843  0.462-  12 2.73  17 2.87   4 2.88   1 2.90  30 2.93  28 2.94  23 2.95  63 2.98
                            41 3.05  57 3.27  62 3.45
  14  0.738  0.396  0.630-  65 2.04  27 2.75   3 2.81   2 2.81  18 2.90  42 2.95  64 2.96  58 3.17

  15  0.394  0.847  0.369-  22 2.68  19 2.76  25 2.83  34 2.84   9 2.85  39 2.98   1 3.16  46 3.43

  16  0.391  0.371  0.541-  21 2.65  20 2.66  26 2.83  10 2.84  37 2.84  33 2.85  31 2.87  40 3.06
                             2 3.19
  17  0.619  0.602  0.458-  33 2.81  25 2.81  23 2.81  31 2.85   9 2.87  13 2.87   7 2.89  61 2.95
                            35 3.03   2 3.17   1 3.40  63 3.44
  18  0.619  0.146  0.622-  10 2.70  32 2.73   8 2.76  26 2.81  62 2.81  14 2.90  36 3.11   2 3.15
                            64 3.31
  19  0.279  0.834  0.451-  15 2.76  35 2.94  46 2.96  39 2.97  25 2.99  44 3.02  60 3.07  51 3.08
                            47 3.12  56 3.20  21 3.34
  20  0.281  0.388  0.620-  16 2.66  45 2.84  36 2.85  21 2.98  59 2.98  52 2.99  48 3.04  26 3.04
                            40 3.18
  21  0.278  0.595  0.539-  16 2.65  45 2.90  59 2.94  35 2.96  52 2.97  44 2.97  20 2.98  47 3.03
                            37 3.03  33 3.06  56 3.11  19 3.34
  22  0.283  0.077  0.361-  15 2.68  46 2.97  43 2.97  34 2.99  51 3.02  55 3.10  60 3.10
  23  0.736  0.634  0.540-  27 2.69  30 2.77   2 2.79  17 2.81  12 2.82   3 2.88  63 2.95  13 2.95
                            42 3.02
  24  0.740  0.115  0.366-  29 2.73  11 2.75  28 2.85   4 2.86   1 2.88  41 3.00
  25  0.496  0.836  0.458-  35 2.78  12 2.81  17 2.81  15 2.83   1 2.88   4 2.92  19 2.99  46 2.99
                            44 3.02  33 3.02
  26  0.501  0.386  0.627-  65 1.97   2 2.79  36 2.80  18 2.81  16 2.83   3 2.85  45 2.94  20 3.04

  27  0.836  0.645  0.624-  23 2.69   5 2.74  14 2.75  58 2.78   8 2.89  30 2.91   3 3.02  54 3.18
                            42 3.38
  28  0.847  0.110  0.455-   7 2.77  62 2.80   6 2.80  24 2.85  57 2.90  13 2.94  53 2.98  29 3.15
                             4 3.16  50 3.27  41 3.36
  29  0.852  0.349  0.376-  24 2.73   6 2.80   7 2.83  53 2.94  61 2.98  49 3.07  28 3.15  63 3.25

  30  0.852  0.868  0.552-   8 2.66  23 2.77   5 2.80  54 2.88  27 2.91  13 2.93  57 2.98  62 2.99
                            50 3.06  64 3.42
  31  0.522  0.339  0.461-   2 2.78   4 2.80  17 2.85   7 2.85  35 2.86  16 2.87  11 2.87  46 2.95
                            10 2.95  43 3.11
  32  0.520  0.899  0.624-  18 2.73  12 2.74   8 2.75  36 2.88   3 2.88  44 2.89  45 3.07
  33  0.499  0.625  0.539-   2 2.80  17 2.81  35 2.82  16 2.85  12 2.89   3 2.90  45 2.91  44 2.92
                            25 3.02  21 3.06
  34  0.499  0.102  0.365-  11 2.83   1 2.83  15 2.84   4 2.87  43 2.91  46 2.98  22 2.99
  35  0.400  0.580  0.451-  25 2.78  33 2.82   9 2.84  31 2.86  37 2.88  39 2.93  19 2.94  21 2.96
                            17 3.03  43 3.08
  36  0.393  0.139  0.621-  10 2.78  26 2.80  20 2.85  40 2.85  32 2.88  38 3.03  18 3.11  44 3.26

  37  0.255  0.366  0.464-  16 2.84  35 2.88  47 3.02  21 3.03  60 3.04  43 3.05  52 3.06  55 3.08
                            46 3.08  40 3.25  39 3.39
  38  0.237  0.915  0.625-  56 2.82  44 2.89  59 2.96  40 2.96  36 3.03  48 3.09  54 3.28  45 3.31

  39  0.252  0.614  0.376-  35 2.93  19 2.97  15 2.98  47 3.07  43 3.07  51 3.07  55 3.08  37 3.39
                            49 3.53
  40  0.245  0.132  0.549-  36 2.85  38 2.96  48 3.02  16 3.06  60 3.06  52 3.06  44 3.08  56 3.16
                            20 3.18  46 3.23  37 3.25  50 3.45
  41  0.865  0.859  0.370-   6 2.96  24 3.00  61 3.05  13 3.05  57 3.06  49 3.12   1 3.35  28 3.36
                            51 3.49  63 3.53
  42  0.865  0.380  0.545-   5 2.92  14 2.95  62 3.01  23 3.02  58 3.02   7 3.07  50 3.12  63 3.14
                            53 3.18  64 3.34   2 3.35  27 3.38  52 3.45
  43  0.381  0.352  0.373-  34 2.91  22 2.97  37 3.05  39 3.07  35 3.08   9 3.10  31 3.11  55 3.26
                            11 3.27  46 3.29
  44  0.375  0.871  0.548-  38 2.89  32 2.89  33 2.92  21 2.97  25 3.02  19 3.02  40 3.08  45 3.09
                            10 3.14  36 3.26  56 3.35  12 3.35  46 3.39
  45  0.385  0.644  0.628-  20 2.84  21 2.90  33 2.91  26 2.94  32 3.07  44 3.09   3 3.19  59 3.28
                            38 3.31
  46  0.384  0.104  0.456-  10 2.94  31 2.95  19 2.96  22 2.97  34 2.98  25 2.99  37 3.08  40 3.23
                             4 3.24  60 3.27  43 3.29  44 3.39  15 3.43
  47  0.117  0.611  0.465-  37 3.02  21 3.03  39 3.07  56 3.08  19 3.12   5 3.14  52 3.14  53 3.14
                            49 3.15  57 3.17  63 3.42  51 3.52  55 3.80
  48  0.114  0.184  0.635-  50 3.01  40 3.02  20 3.04  52 3.09  38 3.09  58 3.10  54 3.32  64 3.55

  49  0.996  0.593  0.368-  63 3.05  29 3.07  41 3.12  47 3.15  51 3.16  55 3.23  53 3.44  39 3.53
                            61 3.65  57 3.82
  50  0.994  0.112  0.547-  48 3.01  64 3.03  30 3.06  54 3.11  42 3.12  52 3.16  56 3.20  57 3.21
                            28 3.27  53 3.34  60 3.40  40 3.45  62 3.59
  51  0.119  0.872  0.375-  60 3.00  22 3.02   6 3.05  39 3.07  19 3.08  57 3.16  49 3.16  41 3.49
                            47 3.52
  52  0.116  0.393  0.550-  21 2.97  20 2.99   5 3.02  37 3.06  40 3.06  48 3.09  59 3.09  47 3.14
                            50 3.16  53 3.17  58 3.28  42 3.45
  53  1.000  0.331  0.453-   6 2.91  29 2.94  28 2.98  60 3.06  63 3.08  55 3.09  47 3.14  52 3.17
                            42 3.18  50 3.34  49 3.44
  54  0.000  0.879  0.626-  30 2.88  56 3.00   5 3.06  59 3.10  50 3.11  64 3.18  27 3.18  38 3.28
                            48 3.32
  55  0.145  0.332  0.368-   6 3.05  37 3.08  39 3.08  53 3.09  22 3.10  49 3.23  60 3.24  43 3.26
                            47 3.80
  56  0.133  0.845  0.541-  38 2.82   5 2.95  57 2.99  54 3.00  59 3.03  47 3.08  21 3.11  40 3.16
                            50 3.20  19 3.20  44 3.35  60 3.43
  57  0.979  0.876  0.465-  28 2.90  30 2.98  56 2.99  41 3.06  63 3.11  60 3.13  51 3.16  47 3.17
                            50 3.21  13 3.27   5 3.35   6 3.37  49 3.82
  58  0.966  0.428  0.641-  27 2.78  42 3.02  48 3.10   5 3.13  64 3.13  14 3.17  59 3.23  52 3.28

  59  0.147  0.634  0.622-  21 2.94  38 2.96  20 2.98   5 3.01  56 3.03  52 3.09  54 3.10  58 3.23
                            45 3.28
  60  0.147  0.092  0.451-  51 3.00  37 3.04  40 3.06  53 3.06  19 3.07   6 3.08  22 3.10  57 3.13
                            55 3.24  46 3.27  50 3.40  56 3.43
  61  0.731  0.606  0.367-   1 2.93  17 2.95   9 2.95  11 2.96  29 2.98  41 3.05  63 3.17  49 3.65

  62  0.735  0.128  0.539-  28 2.80  18 2.81  12 2.91   4 2.97   2 2.98  30 2.99  42 3.01   7 3.03
                            10 3.05  64 3.11   8 3.19  13 3.45  50 3.59
  63  0.869  0.592  0.458-  23 2.95  13 2.98  49 3.05   5 3.07   7 3.07  53 3.08  57 3.11  42 3.14
                            61 3.17  29 3.25  47 3.42  17 3.44  41 3.53
  64  0.858  0.141  0.633-  14 2.96   8 3.03  50 3.03  62 3.11  58 3.13  54 3.18  18 3.31  42 3.34
                            30 3.42  48 3.55
  65  0.613  0.464  0.663-   3 1.91  26 1.97  14 2.04
 
  LATTYP: Found a simple orthorhombic cell.
 ALAT       =     9.5644817352
 B/A-ratio  =     1.4398428730
 C/A-ratio  =     2.8922184390
  
  Lattice vectors:
  
 A1 = (   0.0000000000,  -9.5644817352,   0.0000000000)
 A2 = ( -13.7713508606,   0.0000000000,   0.0000000000)
 A3 = (   0.0000000000,   0.0000000000, -27.6625704340)


Analysis of symmetry for initial positions (statically):
=====================================================================
 Subroutine PRICEL returns:
 Original cell was already a primitive cell.
 

 Routine SETGRP: Setting up the symmetry group for a 
 simple orthorhombic supercell.


 Subroutine GETGRP returns: Found  1 space group operations
 (whereof  1 operations were pure point group operations)
 out of a pool of  8 trial point group operations.


The static configuration has the point symmetry C_1 .


Analysis of symmetry for dynamics (positions and initial velocities):
=====================================================================
 Subroutine PRICEL returns:
 Original cell was already a primitive cell.
 

 Routine SETGRP: Setting up the symmetry group for a 
 simple orthorhombic supercell.


 Subroutine GETGRP returns: Found  1 space group operations
 (whereof  1 operations were pure point group operations)
 out of a pool of  8 trial point group operations.


The dynamic configuration has the point symmetry C_1 .


Analysis of constrained symmetry for selective dynamics:
=====================================================================
 Subroutine PRICEL returns:
 Original cell was already a primitive cell.
 

 Routine SETGRP: Setting up the symmetry group for a 
 simple orthorhombic supercell.


 Subroutine GETGRP returns: Found  1 space group operations
 (whereof  1 operations were pure point group operations)
 out of a pool of  8 trial point group operations.


The constrained configuration has the point symmetry C_1 .


 Subroutine INISYM returns: Found  1 space group operations
 (whereof  1 operations are pure point group operations),
 and found     1 'primitive' translations

 
 
 KPOINTS: k-points                                

Automatic generation of k-mesh.
Space group operators:
 irot       det(A)        alpha          n_x          n_y          n_z        tau_x        tau_y        tau_z
    1     1.000000     0.000000     1.000000     0.000000     0.000000     0.000000     0.000000     0.000000
 
 Subroutine IBZKPT returns following result:
 ===========================================
 
 Found      5 irreducible k-points:
 
 Following reciprocal coordinates:
            Coordinates               Weight
  0.000000  0.000000  0.000000      1.000000
  0.333333  0.000000  0.000000      2.000000
  0.000000  0.333333  0.000000      2.000000
  0.333333  0.333333  0.000000      2.000000
 -0.333333  0.333333  0.000000      2.000000
 
 Following cartesian coordinates:
            Coordinates               Weight
  0.000000  0.000000  0.000000      1.000000
  0.024205  0.000000  0.000000      2.000000
  0.000000  0.034851  0.000000      2.000000
  0.024205  0.034851  0.000000      2.000000
 -0.024205  0.034851  0.000000      2.000000
 


--------------------------------------------------------------------------------------------------------




 Dimension of arrays:
   k-points           NKPTS =      5   k-points in BZ     NKDIM =      5   number of bands    NBANDS=    212
   number of dos      NEDOS =    301   number of ions     NIONS =     65
   non local maximal  LDIM  =      6   non local SUM 2l+1 LMDIM =     18
   total plane-waves  NPLWV = 846720
   max r-space proj   IRMAX =   4874   max aug-charges    IRDMAX=  25433
   dimension x,y,z NGX =    84 NGY =   60 NGZ =  168
   dimension x,y,z NGXF=   168 NGYF=  120 NGZF=  336
   support grid    NGXF=   168 NGYF=  120 NGZF=  336
   ions per type =               6  10   4  18  26   1
 NGX,Y,Z   is equivalent  to a cutoff of  10.14, 10.43, 10.10 a.u.
 NGXF,Y,Z  is equivalent  to a cutoff of  20.28, 20.86, 20.19 a.u.


 I would recommend the setting:
   dimension x,y,z NGX =    83 NGY =   57 NGZ =  166
 SYSTEM =  (110) surface                           
 POSCAR =  Al Nb Ta Ti Zr                          

 Startparameter for this run:
   NWRITE =      2    write-flag & timer
   PREC   = normal    normal or accurate (medium, high low for compatibility)
   ISTART =      0    job   : 0-new  1-cont  2-samecut
   ICHARG =      2    charge: 1-file 2-atom 10-const
   ISPIN  =      1    spin polarized calculation?
   LNONCOLLINEAR =      F non collinear calculations
   LSORBIT =      F    spin-orbit coupling
   INIWAV =      1    electr: 0-lowe 1-rand  2-diag
   LASPH  =      F    aspherical Exc in radial PAW
   METAGGA=      F    non-selfconsistent MetaGGA calc.

 Electronic Relaxation 1
   ENCUT  =  600.0 eV  44.10 Ry    6.64 a.u.  27.50 19.10 55.25*2*pi/ulx,y,z
   ENINI  =  600.0     initial cutoff
   ENAUG  =  605.4 eV  augmentation charge cutoff
   NELM   =     60;   NELMIN=  2; NELMDL= -5     # of ELM steps 
   EDIFF  = 0.1E-03   stopping-criterion for ELM
   LREAL  =      T    real-space projection
   NLSPLINE    = F    spline interpolate recip. space projectors
   LCOMPAT=      F    compatible to vasp.4.4
   GGA_COMPAT  = T    GGA compatible to vasp.4.4-vasp.4.6
   LMAXPAW     = -100 max onsite density
   LMAXMIX     =    2 max onsite mixed and CHGCAR
   VOSKOWN=      0    Vosko Wilk Nusair interpolation
   ROPT   =   -0.00050  -0.00050  -0.00050  -0.00050
   ROPT   =   -0.00050  -0.00050
 Ionic relaxation
   EDIFFG = -.1E-01   stopping-criterion for IOM
   NSW    =    200    number of steps for IOM
   NBLOCK =      1;   KBLOCK =    200    inner block; outer block 
   IBRION =      2    ionic relax: 0-MD 1-quasi-New 2-CG
   NFREE  =      1    steps in history (QN), initial steepest desc. (CG)
   ISIF   =      2    stress and relaxation
   IWAVPR =     11    prediction:  0-non 1-charg 2-wave 3-comb
   ISYM   =      2    0-nonsym 1-usesym 2-fastsym
   LCORR  =      T    Harris-Foulkes like correction to forces

   POTIM  = 0.1000    time-step for ionic-motion
   TEIN   =    0.0    initial temperature
   TEBEG  =    0.0;   TEEND  =   0.0 temperature during run
   SMASS  =  -3.00    Nose mass-parameter (am)
   estimated Nose-frequenzy (Omega)   =  0.10E-29 period in steps =****** mass=  -0.433E-26a.u.
   SCALEE = 1.0000    scale energy and forces
   NPACO  =    256;   APACO  = 16.0  distance and # of slots for P.C.
   PSTRESS=    0.0 pullay stress

  Mass of Ions in am
   POMASS =  26.98 92.91180.95 47.88 91.22 16.00
  Ionic Valenz
   ZVAL   =   3.00 13.00  5.00  4.00  4.00  6.00
  Atomic Wigner-Seitz radii
   RWIGS  =  -1.00 -1.00 -1.00 -1.00 -1.00 -1.00
  virtual crystal weights 
   VCA    =   1.00  1.00  1.00  1.00  1.00  1.00
   NELECT =     350.0000    total number of electrons
   NUPDOWN=      -1.0000    fix difference up-down

 DOS related values:
   EMIN   =  10.00;   EMAX   =-10.00  energy-range for DOS
   EFERMI =   0.00
   ISMEAR =     2;   SIGMA  =   0.10  broadening in eV -4-tet -1-fermi 0-gaus

 Electronic relaxation 2 (details)
   IALGO  =     68    algorithm
   LDIAG  =      T    sub-space diagonalisation (order eigenvalues)
   LSUBROT=      F    optimize rotation matrix (better conditioning)
   TURBO    =      0    0=normal 1=particle mesh
   IRESTART =      0    0=no restart 2=restart with 2 vectors
   NREBOOT  =      0    no. of reboots
   NMIN     =      0    reboot dimension
   EREF     =   0.00    reference energy to select bands
   IMIX   =      4    mixing-type and parameters
     AMIX     =   0.40;   BMIX     =  1.00
     AMIX_MAG =   1.60;   BMIX_MAG =  1.00
     AMIN     =   0.10
     WC   =   100.;   INIMIX=   1;  MIXPRE=   1;  MAXMIX= -45

 Intra band minimization:
   WEIMIN = 0.0010     energy-eigenvalue tresh-hold
   EBREAK =  0.12E-06  absolut break condition
   DEPER  =   0.30     relativ break condition  

   TIME   =   0.40     timestep for ELM

  volume/ion in A,a.u.               =      56.06       378.28
  Fermi-wavevector in a.u.,A,eV,Ry     =   0.749757  1.416836  7.648324  0.562136
  Thomas-Fermi vector in A             =   1.846351
 
 Write flags
   LWAVE  =      F    write WAVECAR
   LCHARG =      F    write CHGCAR
   LVTOT  =      F    write LOCPOT, total local potential
   LVHAR  =      F    write LOCPOT, Hartree potential only
   LELF   =      F    write electronic localiz. function (ELF)
   LORBIT =      0    0 simple, 1 ext, 2 COOP (PROOUT)


 Dipole corrections
   LMONO  =      F    monopole corrections only (constant potential shift)
   LDIPOL =      F    correct potential (dipole corrections)
   IDIPOL =      0    1-x, 2-y, 3-z, 4-all directions 
   EPSILON=  1.0000000 bulk dielectric constant

 Exchange correlation treatment:
   GGA     =    --    GGA type
   LEXCH   =     8    internal setting for exchange type
   VOSKOWN=      0    Vosko Wilk Nusair interpolation
   LHFCALC =     F    Hartree Fock is set to
   LHFONE  =     F    Hartree Fock one center treatment
   AEXX    =    0.0000 exact exchange contribution

 Linear response parameters
   LEPSILON=     F    determine dielectric tensor
   LRPA    =     F    only Hartree local field effects (RPA)
   LNABLA  =     F    use nabla operator in PAW spheres
   LVEL    =     F    velocity operator in full k-point grid
   LINTERFAST=   F  fast interpolation
   KINTER  =     0    interpolate to denser k-point grid
   CSHIFT  =0.1000    complex shift for real part using Kramers Kronig
   OMEGAMAX=  -1.0    maximum frequency
   DEG_THRESHOLD= 0.2000000E-02 threshold for treating states as degnerate
   RTIME   =    0.100 relaxation time in fs

 Orbital magnetization related:
   ORBITALMAG=     F  switch on orbital magnetization
   LCHIMAG   =     F  perturbation theory with respect to B field
   DQ        =  0.001000  dq finite difference perturbation B field



--------------------------------------------------------------------------------------------------------


 conjugate gradient relaxation of ions
   using selective dynamics as specified on POSCAR
 charge density and potential will be updated during run
 non-spin polarized calculation
 RMM-DIIS sequential band-by-band and
  variant of blocked Davidson during initial phase
 perform sub-space diagonalisation
    before iterative eigenvector-optimisation
 modified Broyden-mixing scheme, WC =      100.0
 initial mixing is a Kerker type mixing with AMIX =  0.4000 and BMIX =      1.0000
 Hartree-type preconditioning will be used
 using additional bands           37
 real space projection scheme for non local part
 use partial core corrections
 calculate Harris-corrections to forces 
   (improved forces if not selfconsistent)
 use gradient corrections 
 use of overlap-Matrix (Vanderbilt PP)
 Methfessel and Paxton  Order N= 2 SIGMA  =   0.10


--------------------------------------------------------------------------------------------------------


  energy-cutoff  :      600.00
  volume of cell :     3643.60
      direct lattice vectors                 reciprocal lattice vectors
    13.771350861  0.000000000  0.000000000     0.072614518  0.000000000  0.000000000
     0.000000000  9.564481735  0.000000000     0.000000000  0.104553496  0.000000000
     0.000000000  0.000000000 27.662570434     0.000000000  0.000000000  0.036149931

  length of vectors
    13.771350861  9.564481735 27.662570434     0.072614518  0.104553496  0.036149931


 
 k-points in units of 2pi/SCALE and weight: k-points                                
   0.00000000  0.00000000  0.00000000       0.111
   0.02420484  0.00000000  0.00000000       0.222
   0.00000000  0.03485117  0.00000000       0.222
   0.02420484  0.03485117  0.00000000       0.222
  -0.02420484  0.03485117  0.00000000       0.222
 
 k-points in reciprocal lattice and weights: k-points                                
   0.00000000  0.00000000  0.00000000       0.111
   0.33333333  0.00000000  0.00000000       0.222
   0.00000000  0.33333333  0.00000000       0.222
   0.33333333  0.33333333  0.00000000       0.222
  -0.33333333  0.33333333  0.00000000       0.222
 
 position of ions in fractional coordinates (direct lattice) 
   0.62276447  0.86746430  0.37590333
   0.62212456  0.39284279  0.54647874
   0.61695553  0.63289640  0.62592425
   0.61839700  0.08363760  0.44965952
   0.97705665  0.63751477  0.55391662
   0.97963780  0.12056648  0.37767599
   0.72857308  0.34338307  0.45816820
   0.71960278  0.89715300  0.62169937
   0.51739597  0.60805875  0.36719826
   0.51301990  0.13190225  0.54004601
   0.61811078  0.34297293  0.36889183
   0.61790115  0.87440309  0.53807946
   0.74231148  0.84345710  0.46199300
   0.73754432  0.39643282  0.63025943
   0.39405298  0.84738672  0.36896032
   0.39128144  0.37094665  0.54111901
   0.61928761  0.60162497  0.45752798
   0.61889206  0.14639905  0.62225377
   0.27944195  0.83362269  0.45088327
   0.28075084  0.38847699  0.61990788
   0.27776094  0.59486082  0.53905432
   0.28324246  0.07725573  0.36149931
   0.73577645  0.63371198  0.54033334
   0.74002355  0.11549973  0.36646499
   0.49591756  0.83582580  0.45790018
   0.50129225  0.38586035  0.62747203
   0.83581873  0.64545836  0.62377316
   0.84724605  0.11017048  0.45460239
   0.85243583  0.34907103  0.37639265
   0.85182531  0.86810178  0.55243063
   0.52175105  0.33942658  0.46105252
   0.51977620  0.89924278  0.62362301
   0.49931993  0.62490299  0.53917118
   0.49943882  0.10200214  0.36464270
   0.40016663  0.58028412  0.45130253
   0.39343516  0.13855661  0.62076294
   0.25505811  0.36595738  0.46399110
   0.23707123  0.91542060  0.62516551
   0.25182599  0.61397660  0.37627308
   0.24464138  0.13230340  0.54896263
   0.86539888  0.85904646  0.37036829
   0.86524609  0.37981842  0.54479138
   0.38059813  0.35186696  0.37331264
   0.37528568  0.87091300  0.54829524
   0.38529756  0.64359037  0.62759517
   0.38408008  0.10357511  0.45579618
   0.11657381  0.61110574  0.46457054
   0.11410122  0.18439712  0.63481064
   0.99629861  0.59295863  0.36811234
   0.99445507  0.11240349  0.54713335
   0.11869311  0.87196302  0.37467704
   0.11575866  0.39278269  0.54951495
   0.99977952  0.33051389  0.45306987
   0.00029208  0.87926931  0.62560891
   0.14482272  0.33176249  0.36788561
   0.13324216  0.84505581  0.54064745
   0.97888047  0.87608504  0.46520830
   0.96570850  0.42799877  0.64057856
   0.14748748  0.63445999  0.62201354
   0.14721048  0.09173214  0.45072276
   0.73135245  0.60578495  0.36679988
   0.73478036  0.12811267  0.53870902
   0.86923259  0.59196168  0.45825814
   0.85828560  0.14070552  0.63258178
   0.61319526  0.46426018  0.66260518
 
 position of ions in cartesian coordinates  (Angst):
   8.57630799  8.29684649 10.39845223
   8.56749566  3.75733772 15.11700666
   8.49631101  6.05332609 17.31467358
   8.51616202  0.79995025 12.43873821
  13.45539000  6.09749837 15.32275740
  13.49093588  1.15315590 10.44748880
  10.03343557  3.28428114 12.67411000
   9.90990239  8.58080347 17.19780266
   7.12524148  5.81576681 10.15764776
   7.06497698  1.26157663 14.93906069
   8.51222037  3.28035836 10.20449636
   8.50933357  8.36321240 14.88466101
  10.22263181  8.06723005 12.77991378
  10.15698165  3.79167448 17.43459577
   5.42664188  8.10481479 10.20639088
   5.38847403  3.54791246 14.96874277
   8.52842696  5.75423100 12.65640004
   8.52297967  1.40023102 17.21313863
   3.84829318  7.97316903 12.47259035
   3.86631832  3.71558107 17.14824540
   3.82514341  5.68953543 14.91162806
   3.90063135  0.73891098 10.00000000
  10.13263563  6.06112663 14.94700910
  10.19112400  1.10469510 10.13736353
   6.82945470  7.99424061 12.66669595
   6.90347151  3.69055424 17.35748936
  11.51035301  6.17347468 17.25516904
  11.66772263  1.05372358 12.57547056
  11.73919286  3.33868345 10.41198829
  11.73078516  8.30294365 15.28165135
   7.18521672  3.24643930 12.75389771
   7.15802039  8.60079119 17.25101539
   6.87630995  5.97687325 14.91486062
   6.87794726  0.97559764 10.08695433
   5.51083508  5.55011685 12.48418803
   5.41813364  1.32522214 17.17189860
   3.51249472  3.50019267 12.83518635
   3.26479105  8.75552358 17.29368499
   3.46798404  5.87236796 10.40868071
   3.36904224  1.26541344 15.18571746
  11.91771166  8.21633417 10.24533883
  11.91560755  3.63276631 15.07032990
   5.24135036  3.36542512 10.32678719
   5.16819073  8.32983148 15.16725561
   5.30606793  6.15560829 17.36089547
   5.28930157  0.99064225 12.60849381
   1.60537885  5.84490969 12.85121538
   1.57132792  1.76366293 17.56049407
  13.72037774  5.67134198 10.18293350
  13.69498974  1.07508115 15.13511476
   1.63456451  8.33987442 10.36453009
   1.59415312  3.75676289 15.20099589
  13.76831459  3.16119411 12.53307716
   0.00402236  8.40975524 17.30595045
   1.99440444  3.17313630 10.17666150
   1.83492453  8.08252085 14.95569825
  13.48050634  8.37929939 12.86885734
  13.29911060  4.09358639 17.72004966
   2.03110183  6.06828099 17.20649339
   2.02728715  0.87737042 12.46815015
  10.07171117  5.79401911 10.14662739
  10.11891815  1.22533130 14.90207633
  11.97050705  5.66180669 12.67659812
  11.81975211  1.34577535 17.49883797
   8.44452707  4.44040798 18.32936249
 


--------------------------------------------------------------------------------------------------------


 k-point  1 :   0.0000 0.0000 0.0000  plane waves:  121663
 k-point  2 :   0.3333 0.0000 0.0000  plane waves:  121577
 k-point  3 :   0.0000 0.3333 0.0000  plane waves:  121622
 k-point  4 :   0.3333 0.3333 0.0000  plane waves:  121647
 k-point  5 :  -0.3333 0.3333 0.0000  plane waves:  121647

 maximum and minimum number of plane-waves per node :      5107     5041

 maximum number of plane-waves:    121663
 maximum index in each direction: 
   IXMAX=   27   IYMAX=   19   IZMAX=   55
   IXMIN=  -27   IYMIN=  -19   IZMIN=  -55

 WARNING: aliasing errors must be expected set NGX to 110 to avoid them
 WARNING: aliasing errors must be expected set NGY to  78 to avoid them
 WARNING: aliasing errors must be expected set NGZ to 222 to avoid them
 aliasing errors are usually negligible using standard VASP settings
 and one can safely disregard these warnings

 real space projection operators:
  total allocation   :      29414.17 KBytes
  max/ min on nodes  :       1428.43        996.84


 parallel 3D FFT for wavefunctions:
    minimum data exchange during FFTs selected (reduces bandwidth)
 parallel 3D FFT for charge:
    minimum data exchange during FFTs selected (reduces bandwidth)


 total amount of memory used by VASP on root node    71355. kBytes
========================================================================

   base      :      30000. kBytes
   nonlr-proj:       6947. kBytes
   fftplans  :       3890. kBytes
   grid      :       8747. kBytes
   one-center:         46. kBytes
   wavefun   :      21725. kBytes
 
     INWAV:  cpu time    0.0000: real time    0.0000
 Broyden mixing: mesh for mixing (old mesh)
   NGX = 55   NGY = 39   NGZ =111
  (NGX  =168   NGY  =120   NGZ  =336)
  gives a total of 238095 points

 initial charge density was supplied:
 charge density of overlapping atoms calculated
 number of electron     350.0000000 magnetization 
 keeping initial charge density in first step


--------------------------------------------------------------------------------------------------------


 Maximum index for non-local projection operator          391
 Maximum index for augmentation-charges         1033 (set IRDMAX)


--------------------------------------------------------------------------------------------------------


 First call to EWALD:  gamma=   0.115
 Maximum number of real-space cells 3x 4x 2
 Maximum number of reciprocal cells 3x 2x 5

 FEWALD executed in parallel
    FEWALD:  cpu time    0.0020: real time    0.0020


----------------------------------------- Iteration    1(   1)  ---------------------------------------


    POTLOK:  cpu time    0.0645: real time    0.0700
    SETDIJ:  cpu time    0.0125: real time    0.0136
     EDDAV:  cpu time    4.8827: real time    4.9179
       DOS:  cpu time    0.0008: real time    0.0008
    --------------------------------------------
      LOOP:  cpu time    4.9643: real time    5.0112

 eigenvalue-minimisations  :  2256
 total energy-change (2. order) : 0.3879206E+04  (-0.1268347E+05)
 number of electron     350.0000000 magnetization 
 augmentation part      350.0000000 magnetization 

 Free energy of the ion-electron system (eV)
  ---------------------------------------------------
  alpha Z        PSCENC =       518.63607455
  Ewald energy   TEWEN  =     71701.31771722
  -Hartree energ DENC   =    -90143.37056056
  -exchange      EXHF   =         0.00000000
  -V(xc)+E(xc)   XCENC  =     -3060.55451146
  PAW double counting   =     19785.83060006   -15696.39549147
  entropy T*S    EENTRO =        -0.00377837
  eigenvalues    EBANDS =       215.38149125
  atomic energy  EATOM  =     20558.36454164
  Solvation  Ediel_sol  =         0.00000000
  ---------------------------------------------------
  free energy    TOTEN  =      3879.20608286 eV

  energy without entropy =     3879.20986123  energy(sigma->0) =     3879.20702745


--------------------------------------------------------------------------------------------------------




----------------------------------------- Iteration    1(   2)  ---------------------------------------


     EDDAV:  cpu time    5.0511: real time    5.0524
       DOS:  cpu time    0.0008: real time    0.0008
    --------------------------------------------
      LOOP:  cpu time    5.0534: real time    5.0558

 eigenvalue-minimisations  :  2384
 total energy-change (2. order) :-0.3603405E+04  (-0.3500056E+04)
 number of electron     350.0000000 magnetization 
 augmentation part      350.0000000 magnetization 

 Free energy of the ion-electron system (eV)
  ---------------------------------------------------
  alpha Z        PSCENC =       518.63607455
  Ewald energy   TEWEN  =     71701.31771722
  -Hartree energ DENC   =    -90143.37056056
  -exchange      EXHF   =         0.00000000
  -V(xc)+E(xc)   XCENC  =     -3060.55451146
  PAW double counting   =     19785.83060006   -15696.39549147
  entropy T*S    EENTRO =         0.00103909
  eigenvalues    EBANDS =     -3388.02846434
  atomic energy  EATOM  =     20558.36454164
  Solvation  Ediel_sol  =         0.00000000
  ---------------------------------------------------
  free energy    TOTEN  =       275.80094474 eV

  energy without entropy =      275.79990565  energy(sigma->0) =      275.80068497


--------------------------------------------------------------------------------------------------------




----------------------------------------- Iteration    1(   3)  ---------------------------------------


     EDDAV:  cpu time    7.3699: real time    7.3699
       DOS:  cpu time    0.0008: real time    0.0008
    --------------------------------------------
      LOOP:  cpu time    7.3721: real time    7.3735

 eigenvalue-minimisations  :  3824
 total energy-change (2. order) :-0.7526354E+03  (-0.7289910E+03)
 number of electron     350.0000000 magnetization 
 augmentation part      350.0000000 magnetization 

 Free energy of the ion-electron system (eV)
  ---------------------------------------------------
  alpha Z        PSCENC =       518.63607455
  Ewald energy   TEWEN  =     71701.31771722
  -Hartree energ DENC   =    -90143.37056056
  -exchange      EXHF   =         0.00000000
  -V(xc)+E(xc)   XCENC  =     -3060.55451146
  PAW double counting   =     19785.83060006   -15696.39549147
  entropy T*S    EENTRO =         0.00162450
  eigenvalues    EBANDS =     -4140.66448910
  atomic energy  EATOM  =     20558.36454164
  Solvation  Ediel_sol  =         0.00000000
  ---------------------------------------------------
  free energy    TOTEN  =      -476.83449462 eV

  energy without entropy =     -476.83611912  energy(sigma->0) =     -476.83490075


--------------------------------------------------------------------------------------------------------




----------------------------------------- Iteration    1(   4)  ---------------------------------------


     EDDAV:  cpu time    6.8053: real time    6.8056
       DOS:  cpu time    0.0008: real time    0.0008
    --------------------------------------------
      LOOP:  cpu time    6.8073: real time    6.8090

 eigenvalue-minimisations  :  3472
 total energy-change (2. order) :-0.9514457E+02  (-0.9088775E+02)
 number of electron     350.0000000 magnetization 
 augmentation part      350.0000000 magnetization 

 Free energy of the ion-electron system (eV)
  ---------------------------------------------------
  alpha Z        PSCENC =       518.63607455
  Ewald energy   TEWEN  =     71701.31771722
  -Hartree energ DENC   =    -90143.37056056
  -exchange      EXHF   =         0.00000000
  -V(xc)+E(xc)   XCENC  =     -3060.55451146
  PAW double counting   =     19785.83060006   -15696.39549147
  entropy T*S    EENTRO =        -0.00119926
  eigenvalues    EBANDS =     -4235.80623150
  atomic energy  EATOM  =     20558.36454164
  Solvation  Ediel_sol  =         0.00000000
  ---------------------------------------------------
  free energy    TOTEN  =      -571.97906077 eV

  energy without entropy =     -571.97786152  energy(sigma->0) =     -571.97876096


--------------------------------------------------------------------------------------------------------




----------------------------------------- Iteration    1(   5)  ---------------------------------------


     EDDAV:  cpu time    7.7748: real time    7.7750
       DOS:  cpu time    0.0008: real time    0.0008
    CHARGE:  cpu time    0.1518: real time    0.1526
    MIXING:  cpu time    0.0053: real time    0.0064
    --------------------------------------------
      LOOP:  cpu time    7.9340: real time    7.9375

 eigenvalue-minimisations  :  4064
 total energy-change (2. order) :-0.1452316E+02  (-0.1411113E+02)
 number of electron     349.9999999 magnetization 
 augmentation part       42.3457670 magnetization 

 Broyden mixing:
  rms(total) = 0.59649E+01    rms(broyden)= 0.59649E+01
  rms(prec ) = 0.65913E+01
  weight for this iteration     100.00

 Free energy of the ion-electron system (eV)
  ---------------------------------------------------
  alpha Z        PSCENC =       518.63607455
  Ewald energy   TEWEN  =     71701.31771722
  -Hartree energ DENC   =    -90143.37056056
  -exchange      EXHF   =         0.00000000
  -V(xc)+E(xc)   XCENC  =     -3060.55451146
  PAW double counting   =     19785.83060006   -15696.39549147
  entropy T*S    EENTRO =         0.00766109
  eigenvalues    EBANDS =     -4250.33824713
  atomic energy  EATOM  =     20558.36454164
  Solvation  Ediel_sol  =         0.00000000
  ---------------------------------------------------
  free energy    TOTEN  =      -586.50221606 eV

  energy without entropy =     -586.50987715  energy(sigma->0) =     -586.50413133


--------------------------------------------------------------------------------------------------------




----------------------------------------- Iteration    1(   6)  ---------------------------------------


    POTLOK:  cpu time    0.0530: real time    0.0530
    SETDIJ:  cpu time    0.0064: real time    0.0063
    EDDIAG:  cpu time    0.7499: real time    0.7511
  RMM-DIIS:  cpu time    3.9612: real time    3.9622
    ORTHCH:  cpu time    0.2163: real time    0.2163
       DOS:  cpu time    0.0008: real time    0.0008
    CHARGE:  cpu time    0.1489: real time    0.1489
    MIXING:  cpu time    0.0033: real time    0.0061
    --------------------------------------------
      LOOP:  cpu time    5.1416: real time    5.1481

 eigenvalue-minimisations  :  3532
 total energy-change (2. order) :-0.5473215E+02  (-0.1465040E+03)
 number of electron     349.9999998 magnetization 
 augmentation part       57.7696227 magnetization 

 Broyden mixing:
  rms(total) = 0.42949E+01    rms(broyden)= 0.42949E+01
  rms(prec ) = 0.55223E+01
  weight for this iteration     100.00

 eigenvalues of (default mixing * dielectric matrix)
  average eigenvalue GAMMA=   0.7007
  0.7007

 Free energy of the ion-electron system (eV)
  ---------------------------------------------------
  alpha Z        PSCENC =       518.63607455
  Ewald energy   TEWEN  =     71701.31771722
  -Hartree energ DENC   =    -90820.83615090
  -exchange      EXHF   =         0.00000000
  -V(xc)+E(xc)   XCENC  =     -3050.31846364
  PAW double counting   =     23263.00912855   -19174.02806154
  entropy T*S    EENTRO =        -0.00567590
  eigenvalues    EBANDS =     -3637.37347249
  atomic energy  EATOM  =     20558.36454164
  Solvation  Ediel_sol  =         0.00000000
  ---------------------------------------------------
  free energy    TOTEN  =      -641.23436252 eV

  energy without entropy =     -641.22868661  energy(sigma->0) =     -641.23294354


--------------------------------------------------------------------------------------------------------




----------------------------------------- Iteration    1(   7)  ---------------------------------------


    POTLOK:  cpu time    0.0535: real time    0.0535
    SETDIJ:  cpu time    0.0061: real time    0.0061
    EDDIAG:  cpu time    0.7570: real time    0.7570
  RMM-DIIS:  cpu time    2.6418: real time    2.6418
    ORTHCH:  cpu time    0.2156: real time    0.2156
       DOS:  cpu time    0.0008: real time    0.0008
    CHARGE:  cpu time    0.1492: real time    0.1492
    MIXING:  cpu time    0.0021: real time    0.0025
    --------------------------------------------
      LOOP:  cpu time    3.8278: real time    3.8298

 eigenvalue-minimisations  :  2361
 total energy-change (2. order) : 0.1079387E+03  (-0.3191820E+02)
 number of electron     350.0000000 magnetization 
 augmentation part       49.2889404 magnetization 

 Broyden mixing:
  rms(total) = 0.28531E+01    rms(broyden)= 0.28531E+01
  rms(prec ) = 0.35961E+01
  weight for this iteration     100.00

 eigenvalues of (default mixing * dielectric matrix)
  average eigenvalue GAMMA=   0.7610
  1.1664  0.3556

 Free energy of the ion-electron system (eV)
  ---------------------------------------------------
  alpha Z        PSCENC =       518.63607455
  Ewald energy   TEWEN  =     71701.31771722
  -Hartree energ DENC   =    -90413.63707414
  -exchange      EXHF   =         0.00000000
  -V(xc)+E(xc)   XCENC  =     -3051.33059690
  PAW double counting   =     23588.05075308   -19511.55132819
  entropy T*S    EENTRO =         0.01624876
  eigenvalues    EBANDS =     -3923.16196295
  atomic energy  EATOM  =     20558.36454164
  Solvation  Ediel_sol  =         0.00000000
  ---------------------------------------------------
  free energy    TOTEN  =      -533.29562692 eV

  energy without entropy =     -533.31187568  energy(sigma->0) =     -533.29968911


--------------------------------------------------------------------------------------------------------




----------------------------------------- Iteration    1(   8)  ---------------------------------------


    POTLOK:  cpu time    0.0536: real time    0.0536
    SETDIJ:  cpu time    0.0061: real time    0.0061
    EDDIAG:  cpu time    0.7583: real time    0.7583
  RMM-DIIS:  cpu time    3.7368: real time    3.7368
    ORTHCH:  cpu time    0.2153: real time    0.2161
       DOS:  cpu time    0.0009: real time    0.0009
    CHARGE:  cpu time    0.1486: real time    0.1486
    MIXING:  cpu time    0.0021: real time    0.0027
    --------------------------------------------
      LOOP:  cpu time    4.9233: real time    4.9266

 eigenvalue-minimisations  :  3285
 total energy-change (2. order) :-0.1469353E+02  (-0.1565945E+02)
 number of electron     350.0000000 magnetization 
 augmentation part       48.6720037 magnetization 

 Broyden mixing:
  rms(total) = 0.25232E+01    rms(broyden)= 0.25232E+01
  rms(prec ) = 0.45076E+01
  weight for this iteration     100.00

 eigenvalues of (default mixing * dielectric matrix)
  average eigenvalue GAMMA=   0.6912
  1.3839  0.3699  0.3197

 Free energy of the ion-electron system (eV)
  ---------------------------------------------------
  alpha Z        PSCENC =       518.63607455
  Ewald energy   TEWEN  =     71701.31771722
  -Hartree energ DENC   =    -90478.89154252
  -exchange      EXHF   =         0.00000000
  -V(xc)+E(xc)   XCENC  =     -3049.19925418
  PAW double counting   =     24495.82334432   -20420.35623366
  entropy T*S    EENTRO =         0.00286054
  eigenvalues    EBANDS =     -3873.68666654
  atomic energy  EATOM  =     20558.36454164
  Solvation  Ediel_sol  =         0.00000000
  ---------------------------------------------------
  free energy    TOTEN  =      -547.98915863 eV

  energy without entropy =     -547.99201917  energy(sigma->0) =     -547.98987377


--------------------------------------------------------------------------------------------------------




----------------------------------------- Iteration    1(   9)  ---------------------------------------


    POTLOK:  cpu time    0.0534: real time    0.0534
    SETDIJ:  cpu time    0.0061: real time    0.0061
    EDDIAG:  cpu time    0.7590: real time    0.7590
  RMM-DIIS:  cpu time    4.0405: real time    4.0406
    ORTHCH:  cpu time    0.2160: real time    0.2160
       DOS:  cpu time    0.0009: real time    0.0009
    CHARGE:  cpu time    0.1531: real time    0.1531
    MIXING:  cpu time    0.0020: real time    0.0020
    --------------------------------------------
      LOOP:  cpu time    5.2327: real time    5.2344

 eigenvalue-minimisations  :  3610
 total energy-change (2. order) : 0.1685451E+02  (-0.6650225E+01)
 number of electron     349.9999997 magnetization 
 augmentation part       48.7361490 magnetization 

 Broyden mixing:
  rms(total) = 0.20065E+01    rms(broyden)= 0.20065E+01
  rms(prec ) = 0.33108E+01
  weight for this iteration     100.00

 eigenvalues of (default mixing * dielectric matrix)
  average eigenvalue GAMMA=   0.6262
  1.5514  0.3981  0.3981  0.1570

 Free energy of the ion-electron system (eV)
  ---------------------------------------------------
  alpha Z        PSCENC =       518.63607455
  Ewald energy   TEWEN  =     71701.31771722
  -Hartree energ DENC   =    -90530.13265132
  -exchange      EXHF   =         0.00000000
  -V(xc)+E(xc)   XCENC  =     -3047.15467913
  PAW double counting   =     24934.60611415   -20856.79700236
  entropy T*S    EENTRO =         0.00445452
  eigenvalues    EBANDS =     -3809.97921688
  atomic energy  EATOM  =     20558.36454164
  Solvation  Ediel_sol  =         0.00000000
  ---------------------------------------------------
  free energy    TOTEN  =      -531.13464761 eV

  energy without entropy =     -531.13910213  energy(sigma->0) =     -531.13576124


--------------------------------------------------------------------------------------------------------




----------------------------------------- Iteration    1(  10)  ---------------------------------------


    POTLOK:  cpu time    0.0544: real time    0.0547
    SETDIJ:  cpu time    0.0064: real time    0.0064
    EDDIAG:  cpu time    0.7626: real time    0.7626
  RMM-DIIS:  cpu time    3.6722: real time    3.6722
    ORTHCH:  cpu time    0.2141: real time    0.2141
       DOS:  cpu time    0.0009: real time    0.0009
    CHARGE:  cpu time    0.1483: real time    0.1483
    MIXING:  cpu time    0.0022: real time    0.0022
    --------------------------------------------
      LOOP:  cpu time    4.8628: real time    4.8648

 eigenvalue-minimisations  :  3222
 total energy-change (2. order) : 0.1548411E+02  (-0.2715522E+01)
 number of electron     349.9999999 magnetization 
 augmentation part       48.7974151 magnetization 

 Broyden mixing:
  rms(total) = 0.10193E+01    rms(broyden)= 0.10193E+01
  rms(prec ) = 0.12183E+01
  weight for this iteration     100.00

 eigenvalues of (default mixing * dielectric matrix)
  average eigenvalue GAMMA=   0.6128
  1.5819  0.5154  0.5154  0.3092  0.1423

 Free energy of the ion-electron system (eV)
  ---------------------------------------------------
  alpha Z        PSCENC =       518.63607455
  Ewald energy   TEWEN  =     71701.31771722
  -Hartree energ DENC   =    -90582.26871281
  -exchange      EXHF   =         0.00000000
  -V(xc)+E(xc)   XCENC  =     -3044.43350802
  PAW double counting   =     25446.82189252   -21365.48580687
  entropy T*S    EENTRO =         0.00160733
  eigenvalues    EBANDS =     -3748.60433980
  atomic energy  EATOM  =     20558.36454164
  Solvation  Ediel_sol  =         0.00000000
  ---------------------------------------------------
  free energy    TOTEN  =      -515.65053424 eV

  energy without entropy =     -515.65214157  energy(sigma->0) =     -515.65093607


--------------------------------------------------------------------------------------------------------




----------------------------------------- Iteration    1(  11)  ---------------------------------------


    POTLOK:  cpu time    0.0540: real time    0.0540
    SETDIJ:  cpu time    0.0063: real time    0.0063
    EDDIAG:  cpu time    0.7561: real time    0.7568
  RMM-DIIS:  cpu time    3.8221: real time    3.8222
    ORTHCH:  cpu time    0.2153: real time    0.2153
       DOS:  cpu time    0.0009: real time    0.0009
    CHARGE:  cpu time    0.1526: real time    0.1526
    MIXING:  cpu time    0.0022: real time    0.0022
    --------------------------------------------
      LOOP:  cpu time    5.0114: real time    5.0138

 eigenvalue-minimisations  :  3396
 total energy-change (2. order) : 0.4982968E+00  (-0.1541981E+01)
 number of electron     350.0000000 magnetization 
 augmentation part       50.0065107 magnetization 

 Broyden mixing:
  rms(total) = 0.76895E+00    rms(broyden)= 0.76895E+00
  rms(prec ) = 0.94765E+00
  weight for this iteration     100.00

 eigenvalues of (default mixing * dielectric matrix)
  average eigenvalue GAMMA=   0.6230
  1.5843  0.7138  0.7138  0.2933  0.2933  0.1394

 Free energy of the ion-electron system (eV)
  ---------------------------------------------------
  alpha Z        PSCENC =       518.63607455
  Ewald energy   TEWEN  =     71701.31771722
  -Hartree energ DENC   =    -90591.71207387
  -exchange      EXHF   =         0.00000000
  -V(xc)+E(xc)   XCENC  =     -3042.98976751
  PAW double counting   =     25676.21992988   -21591.42364705
  entropy T*S    EENTRO =        -0.00276589
  eigenvalues    EBANDS =     -3743.56224638
  atomic energy  EATOM  =     20558.36454164
  Solvation  Ediel_sol  =         0.00000000
  ---------------------------------------------------
  free energy    TOTEN  =      -515.15223740 eV

  energy without entropy =     -515.14947151  energy(sigma->0) =     -515.15154593


--------------------------------------------------------------------------------------------------------




----------------------------------------- Iteration    1(  12)  ---------------------------------------


    POTLOK:  cpu time    0.0504: real time    0.0504
    SETDIJ:  cpu time    0.0061: real time    0.0061
    EDDIAG:  cpu time    0.7649: real time    0.7649
  RMM-DIIS:  cpu time    3.9899: real time    3.9899
    ORTHCH:  cpu time    0.2151: real time    0.2151
       DOS:  cpu time    0.0008: real time    0.0008
    CHARGE:  cpu time    0.1509: real time    0.1509
[...]
 -0.025   0.017   1.207   0.013   0.000  -0.072  -0.001  -0.000
  0.156  -0.100   0.013   0.996   0.014  -0.001  -0.055  -0.001
 -0.019   0.009   0.000   0.014   1.221  -0.001  -0.001  -0.071
  0.004  -0.001  -0.072  -0.001  -0.001   0.004   0.000   0.000
 -0.024   0.009  -0.001  -0.055  -0.001   0.000   0.003   0.000
  0.003  -0.001  -0.000  -0.001  -0.071   0.000   0.000   0.004


------------------------ aborting loop because EDIFF is reached ----------------------------------------


    CHARGE:  cpu time    0.1497: real time    0.1497
    FORLOC:  cpu time    0.0197: real time    0.0197
    FORNL :  cpu time    0.8679: real time    0.8679
    STRESS:  cpu time    2.6246: real time    2.6246
    FORCOR:  cpu time    0.0738: real time    0.0738
    FORHAR:  cpu time    0.0313: real time    0.0313
    MIXING:  cpu time    0.0019: real time    0.0019
    OFIELD:  cpu time    0.0000: real time    0.0000

  FORCE on cell =-STRESS in cart. coord.  units (eV):
  Direction    XX          YY          ZZ          XY          YZ          ZX
  --------------------------------------------------------------------------------------
  Alpha Z   518.63607   518.63607   518.63607
  Ewald   76979.55004 82826.26110-88117.05788  -862.41473   123.84795   647.04136
  Hartree 81438.21948 87077.11044-77854.58412  -666.78467    84.53208   649.50970
  E(xc)   -1470.20134 -1472.97074 -1462.16553    -0.80048    -0.34167    -0.66571
  Local  ************************162333.04474  1527.46219  -206.54937 -1299.00085
  n-local   -42.67498   -49.89858   -76.70972     8.12993    -1.16598     0.32935
  augment   443.24120   444.24971   439.15295    -0.93728     0.58342     0.16316
  Kinetic  4195.34340  4189.49128  4203.66058    -6.41252     4.87009     1.31025
  Fock        0.00000     0.00000     0.00000     0.00000     0.00000     0.00000
  -------------------------------------------------------------------------------------
  Total     -35.30922   -31.02932   -16.02292    -1.75757     5.77653    -1.31273
  in kB     -15.52631   -13.64433    -7.04566    -0.77285     2.54008    -0.57724
  external pressure =      -12.07 kB  Pullay stress =        0.00 kB


 VOLUME and BASIS-vectors are now :
 -----------------------------------------------------------------------------
  energy-cutoff  :      600.00
  volume of cell :     3643.60
      direct lattice vectors                 reciprocal lattice vectors
    13.771350861  0.000000000  0.000000000     0.072614518  0.000000000  0.000000000
     0.000000000  9.564481735  0.000000000     0.000000000  0.104553496  0.000000000
     0.000000000  0.000000000 27.662570434     0.000000000  0.000000000  0.036149931

  length of vectors
    13.771350861  9.564481735 27.662570434     0.072614518  0.104553496  0.036149931


 FORCES acting on ions
    electron-ion (+dipol)            ewald-force                    non-local-force                 convergence-correction
 -----------------------------------------------------------------------------------------------
   -.464E+02 -.338E+02 0.375E+03   0.462E+02 0.336E+02 -.374E+03   0.107E+00 0.716E-01 -.780E+00   -.241E-01 -.583E-02 -.211E-01
   -.172E+02 -.272E+02 -.121E+03   0.171E+02 0.275E+02 0.121E+03   0.954E-01 -.281E+00 -.240E+00   -.166E-01 -.175E-02 -.292E-01
   0.419E+02 -.403E+02 -.358E+03   -.418E+02 0.426E+02 0.357E+03   -.781E-01 -.222E+01 0.138E+01   -.125E-01 -.725E-02 -.122E-02
   0.208E+01 0.503E+01 0.190E+03   -.214E+01 -.493E+01 -.190E+03   0.118E+00 -.227E+00 -.691E+00   -.274E-01 0.959E-03 -.325E-01
   -.677E+02 0.577E+01 -.121E+03   0.674E+02 -.533E+01 0.123E+03   0.246E+00 -.443E+00 -.122E+01   0.212E-01 -.223E-02 -.299E-01
   -.474E+02 0.470E+01 0.316E+03   0.467E+02 -.414E+01 -.314E+03   0.651E+00 -.977E+00 -.227E+01   0.303E-01 -.376E-03 -.213E-01
   -.385E+03 -.538E+01 0.429E+03   0.384E+03 0.601E+01 -.430E+03   0.188E+00 -.339E+00 0.938E+00   -.448E-01 0.317E-01 -.143E+00
   -.305E+03 -.203E+01 -.165E+04   0.304E+03 0.282E+01 0.165E+04   0.118E+01 -.780E+00 0.410E+01   -.644E-02 -.802E-02 -.209E-01
   0.106E+03 -.945E+01 0.161E+04   -.105E+03 0.838E+01 -.160E+04   -.533E+00 0.594E+00 -.428E+01   -.862E-01 -.693E-02 -.702E-01
   0.253E+03 0.172E+02 -.427E+03   -.253E+03 -.174E+02 0.428E+03   0.117E+00 0.267E+00 -.136E+01   -.975E-01 0.198E-02 -.154E+00
   -.523E+02 0.137E+03 0.168E+04   0.533E+02 -.137E+03 -.168E+04   -.534E+00 -.387E+00 -.280E+01   -.115E+00 0.318E-01 -.822E-01
   0.112E+03 0.120E+03 -.419E+03   -.111E+03 -.121E+03 0.420E+03   -.638E+00 0.203E+00 -.463E+00   -.655E-01 -.174E-01 -.171E+00
   -.422E+03 0.308E+01 0.697E+03   0.423E+03 -.413E+01 -.696E+03   -.725E+00 0.133E+01 -.148E+01   -.301E-01 -.263E-01 -.157E+00
   -.377E+03 0.768E+02 -.141E+04   0.378E+03 -.763E+02 0.140E+04   -.272E+00 -.533E+00 0.220E+01   -.400E-01 -.226E-01 -.132E-01
   0.302E+03 -.115E+03 0.151E+04   -.302E+03 0.116E+03 -.150E+04   0.240E+00 -.382E+00 -.414E+01   -.764E-01 0.527E-01 -.759E-01
   0.391E+03 -.106E+03 -.473E+03   -.391E+03 0.106E+03 0.473E+03   0.311E+00 0.395E+00 -.688E+00   -.683E-01 -.294E-01 -.146E+00
   -.104E+02 0.110E+01 0.172E+03   0.999E+01 -.981E+00 -.172E+03   0.549E+00 -.316E+00 0.107E+00   -.314E-01 -.272E-02 -.654E-01
   0.759E+01 -.233E+02 -.646E+03   -.821E+01 0.228E+02 0.643E+03   0.648E+00 0.531E+00 0.265E+01   -.194E-01 0.146E-01 -.146E-01
   0.174E+03 -.616E+01 0.146E+03   -.173E+03 0.588E+01 -.147E+03   -.122E+01 0.569E+00 0.768E+00   0.725E-03 0.698E-02 -.706E-01
   0.146E+03 -.882E+01 -.590E+03   -.145E+03 0.893E+01 0.587E+03   -.691E+00 -.103E+00 0.325E+01   0.139E-02 -.211E-03 -.260E-01
   0.129E+03 -.613E+02 -.138E+03   -.128E+03 0.610E+02 0.138E+03   -.179E+00 0.271E+00 0.101E+00   0.118E-02 0.901E-03 -.464E-01
   0.118E+03 -.552E+02 0.461E+03   -.116E+03 0.553E+02 -.458E+03   -.821E+00 -.201E+00 -.265E+01   0.523E-02 0.286E-02 -.132E-01
   -.102E+03 0.576E+02 -.149E+03   0.102E+03 -.573E+02 0.148E+03   0.112E+00 -.291E+00 0.639E+00   -.833E-02 -.646E-03 -.400E-01
   -.101E+03 0.598E+02 0.516E+03   0.100E+03 -.592E+02 -.513E+03   0.441E+00 -.474E+00 -.273E+01   -.156E-01 0.871E-03 -.294E-01
   0.862E+02 -.112E+02 0.150E+03   -.871E+02 0.106E+02 -.150E+03   0.809E+00 0.743E+00 -.342E+00   -.296E-01 0.246E-03 -.537E-01
   0.117E+03 0.110E+01 -.486E+03   -.118E+03 -.109E+01 0.484E+03   0.501E+00 -.110E-01 0.185E+01   -.208E-01 0.409E-02 -.134E-01
   -.154E+03 -.103E+02 -.434E+03   0.154E+03 0.102E+02 0.432E+03   0.273E+00 0.640E-01 0.213E+01   0.103E-01 0.879E-03 -.580E-02
   -.168E+03 0.667E+01 0.179E+03   0.168E+03 -.652E+01 -.180E+03   0.357E+00 -.329E+00 0.366E+00   0.152E-01 0.115E-02 -.369E-01
   -.151E+03 -.558E+01 0.472E+03   0.150E+03 0.555E+01 -.469E+03   0.682E+00 -.577E-01 -.256E+01   0.151E-01 0.173E-01 -.294E-01
   -.207E+03 -.166E+01 -.162E+03   0.206E+03 0.175E+01 0.162E+03   0.718E+00 -.977E-01 0.303E+00   0.139E-01 0.316E-02 -.380E-01
   0.855E+02 0.112E+01 0.164E+03   -.857E+02 -.731E+00 -.165E+03   0.145E-01 -.106E+00 -.186E-01   -.318E-01 0.673E-04 -.515E-01
   0.143E+03 0.313E+02 -.526E+03   -.142E+03 -.309E+02 0.524E+03   -.729E+00 -.335E+00 0.176E+01   -.249E-01 0.622E-03 -.137E-01
   0.802E+02 -.727E+01 -.173E+03   -.803E+02 0.752E+01 0.172E+03   0.197E+00 -.246E+00 0.628E+00   -.258E-01 -.345E-02 -.431E-01
   0.369E+02 -.865E+00 0.495E+03   -.376E+02 0.802E+00 -.492E+03   0.619E+00 0.224E-01 -.249E+01   -.465E-01 0.614E-03 -.210E-01
   0.134E+03 0.672E+01 0.145E+03   -.134E+03 -.692E+01 -.145E+03   -.743E+00 0.593E+00 -.302E+00   -.193E-01 -.337E-02 -.524E-01
   0.127E+03 0.414E+02 -.516E+03   -.126E+03 -.410E+02 0.514E+03   -.810E+00 -.418E+00 0.259E+01   -.223E-01 0.665E-02 -.184E-01
   0.128E+03 0.824E+01 0.165E+03   -.128E+03 -.787E+01 -.165E+03   -.349E-01 -.395E+00 -.489E+00   0.644E-02 -.387E-02 -.549E-01
   0.556E+02 0.578E+01 -.435E+03   -.560E+02 -.613E+01 0.433E+03   0.394E+00 0.352E+00 0.224E+01   0.215E-02 0.531E-02 -.180E-01
   0.126E+03 0.390E+02 0.417E+03   -.126E+03 -.388E+02 -.414E+03   0.170E+00 -.533E+00 -.287E+01   0.656E-02 -.111E-02 -.192E-01
   0.126E+03 0.391E+02 -.164E+03   -.126E+03 -.387E+02 0.164E+03   -.193E+00 -.362E+00 -.665E+00   0.454E-02 0.132E-02 -.416E-01
   -.100E+03 -.108E+01 0.480E+03   0.101E+03 0.107E+01 -.476E+03   -.487E+00 0.287E-01 -.309E+01   0.177E-01 -.146E-01 -.282E-01
   -.159E+03 0.342E+01 -.138E+03   0.159E+03 -.353E+01 0.139E+03   0.344E+00 0.107E+00 -.649E+00   0.137E-01 0.659E-03 -.380E-01
   0.132E+03 0.284E+02 0.446E+03   -.131E+03 -.286E+02 -.443E+03   -.210E+00 0.354E+00 -.255E+01   -.193E-01 -.121E-01 -.204E-01
   0.149E+03 0.221E+02 -.186E+03   -.148E+03 -.219E+02 0.185E+03   -.519E+00 -.196E+00 0.273E+00   -.218E-01 0.192E-02 -.446E-01
   0.893E+02 -.349E+02 -.479E+03   -.900E+02 0.346E+02 0.476E+03   0.732E+00 0.356E+00 0.367E+01   -.180E-01 -.184E-02 -.146E-01
   0.134E+03 -.287E+01 0.186E+03   -.134E+03 0.268E+01 -.187E+03   0.225E+00 0.474E-01 0.569E-01   -.217E-01 0.250E-02 -.616E-01
   0.321E+02 0.107E+01 0.125E+03   -.320E+02 -.106E+01 -.126E+03   -.315E-01 -.811E-01 0.202E+00   0.236E-01 -.181E-02 -.497E-01
   0.758E+01 0.105E+02 -.436E+03   -.790E+01 -.104E+02 0.433E+03   0.300E+00 -.118E+00 0.336E+01   0.209E-01 -.165E-02 -.122E-01
   -.426E+02 -.270E+00 0.432E+03   0.428E+02 0.634E+00 -.429E+03   -.502E-01 -.259E+00 -.276E+01   0.241E-01 0.131E-02 -.220E-01
   -.762E+02 -.417E+01 -.146E+03   0.761E+02 0.382E+01 0.146E+03   0.636E-01 0.345E+00 -.548E-01   0.287E-01 0.223E-02 -.366E-01
   0.502E+02 -.302E+01 0.410E+03   -.503E+02 0.235E+01 -.407E+03   -.194E-01 0.176E+00 -.314E+01   0.312E-01 0.490E-02 -.225E-01
   0.427E+02 0.134E+01 -.155E+03   -.425E+02 -.154E+01 0.156E+03   -.246E+00 0.202E+00 -.685E+00   0.230E-01 0.453E-03 -.415E-01
   -.737E+02 -.211E+01 0.162E+03   0.738E+02 0.242E+01 -.162E+03   0.169E-01 0.615E-01 0.824E-01   0.329E-01 0.505E-02 -.456E-01
   -.760E+02 -.296E+01 -.416E+03   0.762E+02 0.315E+01 0.414E+03   -.192E+00 -.196E+00 0.282E+01   0.270E-01 0.211E-02 -.954E-02
   0.397E+02 0.113E+01 0.427E+03   -.390E+02 -.100E+01 -.423E+03   -.807E+00 -.272E+00 -.320E+01   0.307E-01 -.628E-02 -.168E-01
   0.236E+02 -.501E+01 -.133E+03   -.230E+02 0.506E+01 0.133E+03   -.562E+00 -.571E-01 -.450E+00   0.225E-01 0.143E-02 -.395E-01
   -.100E+03 -.349E+00 0.133E+03   0.100E+03 0.666E-01 -.134E+03   0.448E+00 0.336E+00 0.184E+00   0.309E-01 -.515E-02 -.482E-01
   -.105E+03 -.523E+00 -.452E+03   0.104E+03 -.125E+00 0.448E+03   0.100E+01 0.648E+00 0.372E+01   0.215E-01 -.516E-03 -.447E-02
   0.272E+02 -.102E+02 -.413E+03   -.264E+02 0.101E+02 0.411E+03   -.783E+00 0.921E-01 0.262E+01   0.173E-01 0.387E-02 -.176E-01
   0.488E+02 -.528E+01 0.163E+03   -.482E+02 0.515E+01 -.164E+03   -.576E+00 0.562E+00 0.123E+00   0.310E-01 0.138E-02 -.551E-01
   -.141E+03 -.430E+02 0.512E+03   0.141E+03 0.423E+02 -.508E+03   0.804E+00 0.552E-01 -.323E+01   -.898E-02 -.728E-03 -.265E-01
   -.150E+03 -.434E+02 -.133E+03   0.150E+03 0.429E+02 0.133E+03   0.259E+00 0.510E+00 -.772E+00   -.810E-02 0.507E-02 -.367E-01
   -.161E+03 0.460E+01 0.163E+03   0.160E+03 -.454E+01 -.164E+03   0.626E+00 0.415E+00 0.455E+00   0.151E-01 -.600E-03 -.494E-01
   -.137E+03 0.941E+01 -.458E+03   0.137E+03 -.858E+01 0.454E+03   0.438E+00 -.826E+00 0.339E+01   0.117E-01 0.276E-02 -.323E-02
   0.132E+03 -.606E+02 -.952E+03   -.134E+03 0.586E+02 0.972E+03   0.195E+01 0.207E+01 -.194E+02   -.233E-01 -.506E-02 0.145E-01
 -----------------------------------------------------------------------------------------------
   -.372E+01 0.408E+00 0.293E+02   -.398E-12 0.171E-12 0.239E-11   0.427E+01 -.482E+00 -.266E+02   -.570E+00 0.288E-01 -.271E+01
 
 
 POSITION                                       TOTAL-FORCE (eV/Angst)
 -----------------------------------------------------------------------------------
      8.57631      8.29685     10.39845        -0.083766     -0.152998      0.037396
      8.56674      3.68761     15.10953         0.000604     -0.000457      0.001734
      8.50343      6.22156     17.50089         0.002300      0.000929     -0.004532
      8.51616      0.79995     12.43874         0.027901     -0.117649     -0.218534
     13.51558      6.11010     15.29660         0.001664     -0.001926      0.004237
     13.49094      1.15316     10.44749        -0.018768     -0.419514     -0.046545
     10.03344      3.28428     12.67411        -0.002045      0.326811     -0.545761
      9.96722      8.60838     17.17703         0.001783      0.006213      0.002268
      7.12524      5.81577     10.15765        -0.182080     -0.476280      0.896734
      7.04831      1.22579     14.92072         0.003403     -0.004771      0.004926
      8.51222      3.28036     10.20450         0.281989      0.102871      0.704143
      8.52194      8.36694     14.86236         0.000021     -0.004301     -0.003286
     10.22263      8.06723     12.77991         0.260052      0.245012     -0.530398
     10.13140      3.88072     17.41843        -0.002054     -0.004869     -0.004205
      5.42664      8.10481     10.20639         0.325256      0.038693      0.937224
      5.41861      3.53810     15.00767         0.000891     -0.001143      0.003722
      8.52843      5.75423     12.65640         0.086771     -0.196547      0.020864
      8.52559      1.34748     17.16111         0.000597      0.001311     -0.006976
      3.84829      7.97317     12.47259        -0.384062      0.295338     -0.384847
      3.83758      3.77988     17.12478         0.002826      0.007685      0.000599
      3.81793      5.67185     14.94891        -0.000215      0.001046      0.001239
      3.90063      0.73891     10.00000         0.514200     -0.111500      0.362034
     10.04184      6.02544     15.00984        -0.001432      0.003895      0.002872
     10.19112      1.10470     10.13736        -0.224566      0.073827      0.389031
      6.82945      7.99424     12.66670        -0.083913      0.185662     -0.364650
      7.03409      3.75942     17.39703         0.003101      0.002355     -0.002395
     11.54841      6.22996     17.21065         0.001340      0.001272      0.002044
     11.66772      1.05372     12.57547        -0.049161     -0.175887     -0.839076
     11.73919      3.33868     10.41199        -0.305250     -0.076836      0.594287
     11.71728      8.21498     15.21535        -0.000760      0.000329      0.001166
      7.18522      3.24644     12.75390        -0.266206      0.282165     -0.537684
      7.11631      8.58091     17.14559        -0.000958      0.004355     -0.001267
      6.92158      5.97280     14.99269         0.003709      0.002044     -0.000233
      6.87795      0.97560     10.08695        -0.089448     -0.039523      0.171378
      5.51084      5.55012     12.48419        -0.005804      0.388391     -0.091632
      5.47562      1.42694     17.17778         0.004970      0.001102     -0.002176
      3.51249      3.50019     12.83519        -0.057545     -0.033447     -0.603924
      3.30648      8.81947     17.30550        -0.002675     -0.000704     -0.000088
      3.46798      5.87237     10.40868         0.092734     -0.262459     -0.091050
      3.38723      1.29703     15.18501         0.000124      0.002186      0.002590
     11.91771      8.21633     10.24534        -0.157244      0.004248      0.661217
     11.91196      3.65945     15.10626        -0.001946      0.001074     -0.000647
      5.24135      3.36543     10.32679         0.184428      0.107282      0.077999
      5.13826      8.30254     15.12699         0.000101      0.002780     -0.000146
      5.26504      6.23735     17.39460         0.001917      0.003919      0.001832
      5.28930      0.99064     12.60849         0.050898     -0.137502     -0.417417
      1.60538      5.84491     12.85122         0.122375     -0.069880     -0.576489
      1.56735      1.77808     17.54095        -0.000302      0.000915     -0.001350
     13.72038      5.67134     10.18293         0.188373      0.106287      0.677871
     13.68606      1.10517     15.12056        -0.000390      0.002098      0.000953
      1.63456      8.33987     10.36453        -0.043542     -0.482485      0.150379
      1.59667      3.75806     15.20078        -0.002524      0.003185      0.000831
     13.76831      3.16119     12.53308         0.143187      0.381088     -0.341562
     -0.03483      8.44932     17.25402        -0.000201      0.002620      0.000019
      1.99440      3.17314     10.17666        -0.113539     -0.155702      0.667508
      1.85308      8.12206     14.96731         0.001453     -0.000433      0.002292
     13.48051      8.37930     12.86886        -0.024107      0.049284     -0.387674
     13.30224      4.14615     17.71775         0.000419      0.000988     -0.001092
      2.03072      6.14298     17.22690         0.000234      0.002924     -0.002390
      2.02729      0.87737     12.46815         0.014014      0.431701     -0.292104
     10.07171      5.79402     10.14663         0.146224     -0.620619      0.196554
     10.18624      1.20213     14.89888        -0.001510      0.001072      0.003675
     11.97051      5.66181     12.67660        -0.357740      0.471190     -0.277907
     11.85193      1.42864     17.50250        -0.001664      0.001269     -0.001761
      8.48604      4.55388     18.43656        -0.004443      0.000016     -0.001822
 -----------------------------------------------------------------------------------
    total drift:                               -0.017808     -0.045305      0.022716


--------------------------------------------------------------------------------------------------------



  FREE ENERGIE OF THE ION-ELECTRON SYSTEM (eV)
  ---------------------------------------------------
  free  energy   TOTEN  =      -514.20468249 eV

  energy  without entropy=     -514.19343127  energy(sigma->0) =     -514.20186969
 
 d Force = 0.3993731E-04[ 0.180E-04, 0.619E-04]  d Energy = 0.3972144E-04 0.216E-06
 d Force =-0.4735854E+00[-0.474E+00,-0.474E+00]  d Ewald  =-0.4735857E+00 0.341E-06


--------------------------------------------------------------------------------------------------------


    POTLOK:  cpu time    0.0607: real time    0.0607


--------------------------------------------------------------------------------------------------------


 Conjugate gradient step on ions:
 trial-energy change:   -0.000040  1 .order   -0.000040   -0.000062   -0.000018
  (g-gl).g = 0.962E-05      g.g   = 0.949E-05  gl.gl    = 0.102E-04
 g(Force)  = 0.949E-05   g(Stress)= 0.000E+00 ortho     = 0.168E-05
 gamma     =   0.93849
 trial     =   5.59514
 opt step  =   7.88881  (harmonic =   7.88881) maximal distance =0.00156458
 next E    =  -514.204686   (d E  =  -0.00004)


--------------------------------------------------------------------------------------------------------


  
 reached required accuracy - stopping structural energy minimisation
     LOOP+:  cpu time   18.1835: real time   18.2013
    4ORBIT:  cpu time    0.0000: real time    0.0000

 total amount of memory used by VASP on root node    71355. kBytes
========================================================================

   base      :      30000. kBytes
   nonlr-proj:       6947. kBytes
   fftplans  :       3890. kBytes
   grid      :       8747. kBytes
   one-center:         46. kBytes
   wavefun   :      21725. kBytes
 
  
  
 General timing and accounting informations for this job:
 ========================================================
  
                  Total CPU time used (sec):     1713.751
                            User time (sec):     1698.443
                          System time (sec):       15.308
                         Elapsed time (sec):     1714.971
  
                   Maximum memory used (kb):      149596.
                   Average memory used (kb):           0.
  
                          Minor page faults:        58133
                          Major page faults:            0
                 Voluntary context switches:        19964
