 vasp.5.4.1 05Feb16 (build Mar 19 2020 08:54:17) complex                        
  
 executed on           IFC91_ompi date 2021.11.11  22:38:59
 running on   96 total cores
 distrk:  each k-point on   96 cores,    1 groups
 distr:  one band on NCORES_PER_BAND=  24 cores,    4 groups


--------------------------------------------------------------------------------------------------------


 INCAR:
 POTCAR:    PAW_PBE Al 04Jan2001                  
 POTCAR:    PAW_PBE Nb_sv 25May2007               
 POTCAR:    PAW_PBE Ta 17Jan2003                  
 POTCAR:    PAW_PBE Ti 08Apr2002                  
 POTCAR:   PAW_PBE Zr 08Apr2002                   
 POTCAR:    PAW_PBE O 08Apr2002                   

 ----------------------------------------------------------------------------- 
|                                                                             |
|           W    W    AA    RRRRR   N    N  II  N    N   GGGG   !!!           |
|           W    W   A  A   R    R  NN   N  II  NN   N  G    G  !!!           |
|           W    W  A    A  R    R  N N  N  II  N N  N  G       !!!           |
|           W WW W  AAAAAA  RRRRR   N  N N  II  N  N N  G  GGG   !            |
|           WW  WW  A    A  R   R   N   NN  II  N   NN  G    G                |
|           W    W  A    A  R    R  N    N  II  N    N   GGGG   !!!           |
|                                                                             |
|      For optimal performance we recommend to set                            |
|        NCORE= 4 - approx SQRT( number of cores)                             |
|      NCORE specifies how many cores store one orbital (NPAR=cpu/NCORE).     |
|      This setting can  greatly improve the performance of VASP for DFT.     |
|      The default, NPAR=number of cores might be grossly inefficient         |
|      on modern multi-core architectures or massively parallel machines.     |
|      Do your own testing !!!!                                               |
|      Unfortunately you need to use the default for GW and RPA calculations. |
|      (for HF NCORE is supported but not extensively tested yet)             |
|                                                                             |
 ----------------------------------------------------------------------------- 

 POTCAR:    PAW_PBE Al 04Jan2001                  
   VRHFIN =Al: s2p1                                                             
   LEXCH  = PE                                                                  
   EATOM  =    53.5387 eV,    3.9350 Ry                                         
                                                                                
   TITEL  = PAW_PBE Al 04Jan2001                                                
   LULTRA =        F    use ultrasoft PP ?                                      
   IUNSCR =        1    unscreen: 0-lin 1-nonlin 2-no                           
   RPACOR =    1.500    partial core radius                                     
   POMASS =   26.981; ZVAL   =    3.000    mass and valenz                      
   RCORE  =    1.900    outmost cutoff radius                                   
   RWIGS  =    2.650; RWIGS  =    1.402    wigner-seitz radius (au A)           
   ENMAX  =  240.300; ENMIN  =  180.225 eV                                      
   ICORE  =        2    local potential                                         
   LCOR   =        T    correct aug charges                                     
   LPAW   =        T    paw PP                                                  
   EAUG   =  291.052                                                            
   DEXC   =    0.000                                                            
   RMAX   =    1.939    core radius for proj-oper                               
   RAUG   =    1.300    factor for augmentation sphere                          
   RDEP   =    1.966    radius for radial grids                                 
   RDEPT  =    1.856    core radius for aug-charge                              
                                                                                
   Atomic configuration                                                         
    6 entries                                                                   
     n  l   j            E        occ.                                          
     1  0  0.50     -1511.1048   2.0000                                         
     2  0  0.50      -108.1629   2.0000                                         
     2  1  1.50       -69.6402   6.0000                                         
     3  0  0.50        -7.7528   2.0000                                         
     3  1  1.50        -2.7121   1.0000                                         
     3  2  2.50        -2.7212   0.0000                                         
   Description                                                                  
     l       E           TYP  RCUT    TYP  RCUT                                 
     0     -7.7528455     23  1.900                                             
     0     -3.3096929     23  1.900                                             
     1     -2.7120682     23  1.900                                             
     1     13.6058260     23  1.900                                             
     2     -2.7211652      7  1.900                                             
  local pseudopotential read in
  partial core-charges read in
  partial kinetic energy density read in
  atomic valenz-charges read in
  non local Contribution for L=           0  read in
    real space projection operators read in
  non local Contribution for L=           0  read in
    real space projection operators read in
  non local Contribution for L=           1  read in
    real space projection operators read in
  non local Contribution for L=           1  read in
    real space projection operators read in
    PAW grid and wavefunctions read in
 
   number of l-projection  operators is LMAX  =           4
   number of lm-projection operators is LMMAX =           8
 
 POTCAR:    PAW_PBE Nb_sv 25May2007               
   VRHFIN =Nb: 4p5s4d                                                           
   LEXCH  = PE                                                                  
   EATOM  =  1555.1913 eV,  114.3033 Ry                                         
                                                                                
   TITEL  = PAW_PBE Nb_sv 25May2007                                             
   LULTRA =        F    use ultrasoft PP ?                                      
   IUNSCR =        1    unscreen: 0-lin 1-nonlin 2-no                           
   RPACOR =    1.800    partial core radius                                     
   POMASS =   92.910; ZVAL   =   13.000    mass and valenz                      
   RCORE  =    2.400    outmost cutoff radius                                   
   RWIGS  =    2.400; RWIGS  =    1.270    wigner-seitz radius (au A)           
   ENMAX  =  293.235; ENMIN  =  219.927 eV                                      
   ICORE  =        3    local potential                                         
   LCOR   =        T    correct aug charges                                     
   LPAW   =        T    paw PP                                                  
   EAUG   =  455.659                                                            
   DEXC   =    0.000                                                            
   RMAX   =    2.456    core radius for proj-oper                               
   RAUG   =    1.300    factor for augmentation sphere                          
   RDEP   =    2.451    radius for radial grids                                 
   RDEPT  =    1.956    core radius for aug-charge                              
                                                                                
   Atomic configuration                                                         
   11 entries                                                                   
     n  l   j            E        occ.                                          
     1  0  0.50    -18805.2457   2.0000                                         
     2  0  0.50     -2630.2869   2.0000                                         
     2  1  1.50     -2348.4046   6.0000                                         
     3  0  0.50      -438.8757   2.0000                                         
     3  1  1.50      -346.7588   6.0000                                         
     3  2  2.50      -196.2560  10.0000                                         
     4  0  0.50       -58.3859   2.0000                                         
     5  0  0.50        -3.9816   1.0000                                         
     4  1  1.50       -34.5141   6.0000                                         
     4  2  2.50        -3.0408   4.0000                                         
     4  3  2.50        -1.3606   0.0000                                         
   Description                                                                  
     l       E           TYP  RCUT    TYP  RCUT                                 
     0    -58.3859094     23  2.200                                             
     0     -3.9816262     23  2.200                                             
     1    -34.5140738     23  2.200                                             
     1     13.6058260     23  2.200                                             
     2     -3.0408010     23  2.200                                             
     2     -0.1283038     23  2.200                                             
     3     -1.3605826     23  2.400                                             
  local pseudopotential read in
  partial core-charges read in
  partial kinetic energy density read in
  atomic valenz-charges read in
  non local Contribution for L=           0  read in
    real space projection operators read in
  non local Contribution for L=           0  read in
    real space projection operators read in
  non local Contribution for L=           1  read in
    real space projection operators read in
  non local Contribution for L=           1  read in
    real space projection operators read in
  non local Contribution for L=           2  read in
    real space projection operators read in
  non local Contribution for L=           2  read in
    real space projection operators read in
    PAW grid and wavefunctions read in
 
   number of l-projection  operators is LMAX  =           6
   number of lm-projection operators is LMMAX =          18
 
 POTCAR:    PAW_PBE Ta 17Jan2003                  
   VRHFIN =Ta:  6s5d                                                            
   LEXCH  = PE                                                                  
   EATOM  =   130.6506 eV,    9.6025 Ry                                         
                                                                                
   TITEL  = PAW_PBE Ta 17Jan2003                                                
   LULTRA =        F    use ultrasoft PP ?                                      
   IUNSCR =        1    unscreen: 0-lin 1-nonlin 2-no                           
   RPACOR =    2.330    partial core radius                                     
   POMASS =  180.948; ZVAL   =    5.000    mass and valenz                      
   RCORE  =    2.900    outmost cutoff radius                                   
   RWIGS  =    2.840; RWIGS  =    1.503    wigner-seitz radius (au A)           
   ENMAX  =  223.667; ENMIN  =  167.750 eV                                      
   RCLOC  =    2.205    cutoff for local pot                                    
   LCOR   =        T    correct aug charges                                     
   LPAW   =        T    paw PP                                                  
   EAUG   =  332.075                                                            
   DEXC   =    0.000                                                            
   RMAX   =    2.970    core radius for proj-oper                               
   RAUG   =    1.300    factor for augmentation sphere                          
   RDEP   =    3.060    radius for radial grids                                 
   RDEPT  =    2.354    core radius for aug-charge                              
                                                                                
   Atomic configuration                                                         
   16 entries                                                                   
     n  l   j            E        occ.                                          
     1  0  0.50    -67341.2807   2.0000                                         
     2  0  0.50    -11566.9376   2.0000                                         
     2  1  1.50    -10134.1182   6.0000                                         
     3  0  0.50     -2648.5620   2.0000                                         
     3  1  1.50     -2222.6012   6.0000                                         
     3  2  2.50     -1726.3120  10.0000                                         
     4  0  0.50      -538.6961   2.0000                                         
     4  1  1.50      -399.0129   6.0000                                         
     4  2  2.50      -220.3959  10.0000                                         
     4  3  3.50       -23.0374  14.0000                                         
     5  0  0.50       -71.2901   2.0000                                         
     5  1  1.50       -37.8225   6.0000                                         
     5  2  2.50        -2.6455   4.0000                                         
     6  0  0.50        -4.9623   1.0000                                         
     6  1  1.50        -1.3606   0.0000                                         
     5  3  2.50        -1.3606   0.0000                                         
   Description                                                                  
     l       E           TYP  RCUT    TYP  RCUT                                 
     2     -2.6455043     23  2.500                                             
     2     -0.6258895     23  2.500                                             
     0     -4.9622780     23  2.500                                             
     0      4.7531321     23  2.500                                             
     1     -1.3605826     23  2.900                                             
     1     27.2116520     23  2.900                                             
  local pseudopotential read in
  partial core-charges read in
  partial kinetic energy density read in
  atomic valenz-charges read in
  non local Contribution for L=           2  read in
    real space projection operators read in
  non local Contribution for L=           2  read in
    real space projection operators read in
  non local Contribution for L=           0  read in
    real space projection operators read in
  non local Contribution for L=           0  read in
    real space projection operators read in
  non local Contribution for L=           1  read in
    real space projection operators read in
  non local Contribution for L=           1  read in
    real space projection operators read in
    PAW grid and wavefunctions read in
 
   number of l-projection  operators is LMAX  =           6
   number of lm-projection operators is LMMAX =          18
 
 POTCAR:    PAW_PBE Ti 08Apr2002                  
   VRHFIN =Ti: d3 s1                                                            
   LEXCH  = PE                                                                  
   EATOM  =    94.7928 eV,    6.9671 Ry                                         
                                                                                
   TITEL  = PAW_PBE Ti 08Apr2002                                                
   LULTRA =        F    use ultrasoft PP ?                                      
   IUNSCR =        1    unscreen: 0-lin 1-nonlin 2-no                           
   RPACOR =    2.200    partial core radius                                     
   POMASS =   47.880; ZVAL   =    4.000    mass and valenz                      
   RCORE  =    2.800    outmost cutoff radius                                   
   RWIGS  =    2.500; RWIGS  =    1.323    wigner-seitz radius (au A)           
   ENMAX  =  178.330; ENMIN  =  133.747 eV                                      
   RCLOC  =    2.215    cutoff for local pot                                    
   LCOR   =        T    correct aug charges                                     
   LPAW   =        T    paw PP                                                  
   EAUG   =  328.883                                                            
   DEXC   =    0.000                                                            
   RMAX   =    2.868    core radius for proj-oper                               
   RAUG   =    1.300    factor for augmentation sphere                          
   RDEP   =    2.885    radius for radial grids                                 
   RDEPT  =    2.320    core radius for aug-charge                              
                                                                                
   Atomic configuration                                                         
    9 entries                                                                   
     n  l   j            E        occ.                                          
     1  0  0.50     -4865.3608   2.0000                                         
     2  0  0.50      -533.1367   2.0000                                         
     2  1  1.50      -440.5031   6.0000                                         
     3  0  0.50       -59.3186   2.0000                                         
     3  1  1.50       -35.7012   6.0000                                         
     3  2  2.50        -1.9157   3.0000                                         
     4  0  0.50        -3.7291   1.0000                                         
     4  1  1.50        -4.0817   0.0000                                         
     4  3  2.50        -1.3606   0.0000                                         
   Description                                                                  
     l       E           TYP  RCUT    TYP  RCUT                                 
     2     -1.9156924     23  2.800                                             
     2     -0.4062961     23  2.800                                             
     0     -3.7290832     23  2.800                                             
     0     20.4087390     23  2.800                                             
     1     -5.4423304     23  2.800                                             
  local pseudopotential read in
  partial core-charges read in
  partial kinetic energy density read in
  atomic valenz-charges read in
  non local Contribution for L=           2  read in
    real space projection operators read in
  non local Contribution for L=           2  read in
    real space projection operators read in
  non local Contribution for L=           0  read in
    real space projection operators read in
  non local Contribution for L=           0  read in
    real space projection operators read in
  non local Contribution for L=           1  read in
    real space projection operators read in
    PAW grid and wavefunctions read in
 
   number of l-projection  operators is LMAX  =           5
   number of lm-projection operators is LMMAX =          15
 
 POTCAR:   PAW_PBE Zr 08Apr2002                   
   VRHFIN =Zr: 5s4d5p                                                           
   LEXCH  = PE                                                                  
   EATOM  =    77.8472 eV,    5.7216 Ry                                         
                                                                                
   TITEL  = PAW_PBE Zr 08Apr2002                                                
   LULTRA =        F    use ultrasoft PP ?                                      
   IUNSCR =        1    unscreen: 0-lin 1-nonlin 2-no                           
   RPACOR =    2.200    partial core radius                                     
   POMASS =   91.224; ZVAL   =    4.000    mass and valenz                      
   RCORE  =    3.000    outmost cutoff radius                                   
   RWIGS  =    3.070; RWIGS  =    1.625    wigner-seitz radius (au A)           
   ENMAX  =  154.632; ENMIN  =  115.974 eV                                      
   RCLOC  =    2.213    cutoff for local pot                                    
   LCOR   =        T    correct aug charges                                     
   LPAW   =        T    paw PP                                                  
   EAUG   =  243.217                                                            
   DEXC   =    -.082                                                            
   RMAX   =    3.708    core radius for proj-oper                               
   RAUG   =    1.300    factor for augmentation sphere                          
   RDEP   =    3.146    radius for radial grids                                 
   QCUT   =   -3.371; QGAM   =    6.742    optimization parameters              
                                                                                
   Description                                                                  
     l     E      TYP  RCUT    TYP  RCUT                                        
     2   .000     23  3.000                                                     
     2   .000     23  3.000                                                     
     0   .000     23  3.000                                                     
     0  2.000     23  3.000                                                     
     1  -.400     23  3.000                                                     
     3   .000      7   .000                                                     
  local pseudopotential read in
  partial core-charges read in
  atomic valenz-charges read in
  non local Contribution for L=           2  read in
    real space projection operators read in
  non local Contribution for L=           2  read in
    real space projection operators read in
  non local Contribution for L=           0  read in
    real space projection operators read in
  non local Contribution for L=           0  read in
    real space projection operators read in
  non local Contribution for L=           1  read in
    real space projection operators read in
    PAW grid and wavefunctions read in
 
   number of l-projection  operators is LMAX  =           5
   number of lm-projection operators is LMMAX =          15
 
 POTCAR:    PAW_PBE O 08Apr2002                   
   VRHFIN =O: s2p4                                                              
   LEXCH  = PE                                                                  
   EATOM  =   432.3788 eV,   31.7789 Ry                                         
                                                                                
   TITEL  = PAW_PBE O 08Apr2002                                                 
   LULTRA =        F    use ultrasoft PP ?                                      
   IUNSCR =        1    unscreen: 0-lin 1-nonlin 2-no                           
   RPACOR =    1.200    partial core radius                                     
   POMASS =   16.000; ZVAL   =    6.000    mass and valenz                      
   RCORE  =    1.520    outmost cutoff radius                                   
   RWIGS  =    1.550; RWIGS  =    0.820    wigner-seitz radius (au A)           
   ENMAX  =  400.000; ENMIN  =  300.000 eV                                      
   ICORE  =        2    local potential                                         
   LCOR   =        T    correct aug charges                                     
   LPAW   =        T    paw PP                                                  
   EAUG   =  605.392                                                            
   DEXC   =    0.000                                                            
   RMAX   =    1.553    core radius for proj-oper                               
   RAUG   =    1.300    factor for augmentation sphere                          
   RDEP   =    1.550    radius for radial grids                                 
   RDEPT  =    1.329    core radius for aug-charge                              
                                                                                
   Atomic configuration                                                         
    4 entries                                                                   
     n  l   j            E        occ.                                          
     1  0  0.50      -514.6923   2.0000                                         
     2  0  0.50       -23.9615   2.0000                                         
     2  1  0.50        -9.0305   4.0000                                         
     3  2  1.50        -9.5241   0.0000                                         
   Description                                                                  
     l       E           TYP  RCUT    TYP  RCUT                                 
     0    -23.9615318     23  1.200                                             
     0     -9.5240782     23  1.200                                             
     1     -9.0304911     23  1.520                                             
     1      8.1634956     23  1.520                                             
     2     -9.5240782      7  1.500                                             
  local pseudopotential read in
  partial core-charges read in
  partial kinetic energy density read in
  kinetic energy density of atom read in
  atomic valenz-charges read in
  non local Contribution for L=           0  read in
    real space projection operators read in
  non local Contribution for L=           0  read in
    real space projection operators read in
  non local Contribution for L=           1  read in
    real space projection operators read in
  non local Contribution for L=           1  read in
    real space projection operators read in
    PAW grid and wavefunctions read in
 
   number of l-projection  operators is LMAX  =           4
   number of lm-projection operators is LMMAX =           8
 
 Optimization of the real space projectors (new method)

 maximal supplied QI-value         = 19.84
 optimisation between [QCUT,QGAM] = [ 12.50, 25.00] = [ 43.76,175.03] Ry 
 Optimized for a Real-space Cutoff    1.06 Angstroem

   l    n(q)    QCUT    max X(q) W(low)/X(q) W(high)/X(q)  e(spline) 
   0      8    12.501   176.870    0.16E-03    0.12E-03    0.66E-07
   0      8    12.501   105.762    0.15E-03    0.12E-03    0.64E-07
   1      7    12.501    55.370    0.36E-03    0.38E-03    0.67E-07
   1      7    12.501    20.208    0.32E-03    0.35E-03    0.64E-07
 Optimization of the real space projectors (new method)

 maximal supplied QI-value         = 15.68
 optimisation between [QCUT,QGAM] = [ 12.55, 25.10] = [ 44.09,176.36] Ry 
 Optimized for a Real-space Cutoff    1.56 Angstroem

   l    n(q)    QCUT    max X(q) W(low)/X(q) W(high)/X(q)  e(spline) 
   0     12    12.548    10.201    0.21E-04    0.36E-05    0.83E-07
   0     12    12.548     8.174    0.31E-04    0.62E-05    0.15E-06
   1     11    12.548     3.488    0.79E-05    0.23E-04    0.21E-06
   1     11    12.548     4.917    0.56E-04    0.13E-03    0.11E-05
   2     11    12.548   153.744    0.25E-03    0.10E-03    0.15E-05
   2     11    12.548   126.342    0.25E-03    0.10E-03    0.15E-05
 Optimization of the real space projectors (new method)

 maximal supplied QI-value         = 12.85
 optimisation between [QCUT,QGAM] = [ 12.46, 25.06] = [ 43.51,175.83] Ry 
 Optimized for a Real-space Cutoff    1.56 Angstroem

   l    n(q)    QCUT    max X(q) W(low)/X(q) W(high)/X(q)  e(spline) 
   2     11    12.465    62.315    0.36E-03    0.20E-03    0.15E-05
   2     11    12.465    52.185    0.36E-03    0.20E-03    0.15E-05
   0     12    12.465   103.837    0.22E-04    0.37E-05    0.56E-06
   0     12    12.465    59.728    0.20E-04    0.34E-05    0.51E-06
   1     11    12.465    13.958    0.44E-03    0.81E-03    0.81E-05
   1     11    12.465     8.441    0.31E-03    0.56E-03    0.56E-05
 Optimization of the real space projectors (new method)

 maximal supplied QI-value         = 13.42
 optimisation between [QCUT,QGAM] = [ 12.48, 25.09] = [ 43.60,176.28] Ry 
 Optimized for a Real-space Cutoff    1.56 Angstroem

   l    n(q)    QCUT    max X(q) W(low)/X(q) W(high)/X(q)  e(spline) 
   2     11    12.478    49.363    0.45E-03    0.34E-03    0.89E-06
   2     11    12.478    47.669    0.44E-03    0.33E-03    0.87E-06
   0     12    12.478    26.374    0.17E-03    0.37E-04    0.21E-05
   0     12    12.478    11.549    0.13E-03    0.31E-04    0.17E-05
   1     11    12.478     9.492    0.91E-05    0.64E-04    0.34E-06
 Optimization of the real space projectors (new method)

 maximal supplied QI-value         = 12.47
 optimisation between [QCUT,QGAM] = [ 12.47, 25.07] = [ 43.56,175.99] Ry 
 Optimized for a Real-space Cutoff    1.70 Angstroem

   l    n(q)    QCUT    max X(q) W(low)/X(q) W(high)/X(q)  e(spline) 
   2     12    12.472     5.149    0.23E-04    0.12E-05    0.19E-06
   2     12    12.472    48.417    0.26E-03    0.15E-03    0.35E-05
   0     13    12.472    27.113    0.15E-04    0.46E-05    0.14E-06
   0     13    12.472    33.957    0.20E-04    0.33E-04    0.12E-05
   1     12    12.472    13.771    0.11E-04    0.23E-05    0.34E-06
 WARNING: PSMAXN for non-local potential too small
          PSMAXN should be >   12.5490833729506       NTYP=           5
 Optimization of the real space projectors (new method)

 maximal supplied QI-value         = 24.76
 optimisation between [QCUT,QGAM] = [ 12.38, 25.00] = [ 42.90,175.06] Ry 
 Optimized for a Real-space Cutoff    1.13 Angstroem

   l    n(q)    QCUT    max X(q) W(low)/X(q) W(high)/X(q)  e(spline) 
   0      8    12.378    20.381    0.16E-03    0.54E-05    0.27E-06
   0      8    12.378    15.268    0.17E-03    0.61E-05    0.29E-06
   1      8    12.378     5.964    0.38E-03    0.23E-03    0.28E-06
   1      8    12.378     5.382    0.33E-03    0.20E-03    0.25E-06
  PAW_PBE Al 04Jan2001                  :
 energy of atom  1       EATOM=  -53.5387
 kinetic energy error for atom=    0.0002 (will be added to EATOM!!)
  PAW_PBE Nb_sv 25May2007               :
 energy of atom  2       EATOM=-1555.1913
 kinetic energy error for atom=    0.0037 (will be added to EATOM!!)
  PAW_PBE Ta 17Jan2003                  :
 energy of atom  3       EATOM= -130.6506
 kinetic energy error for atom=    0.0004 (will be added to EATOM!!)
  PAW_PBE Ti 08Apr2002                  :
 energy of atom  4       EATOM=  -94.7928
 kinetic energy error for atom=    0.0001 (will be added to EATOM!!)
 PAW_PBE Zr 08Apr2002                   :
 energy of atom  5       EATOM=  -77.8472
 kinetic energy error for atom=    0.0001 (will be added to EATOM!!)
  PAW_PBE O 08Apr2002                   :
 energy of atom  6       EATOM= -432.3788
 kinetic energy error for atom=    0.0168 (will be added to EATOM!!)
 
 
 POSCAR: Al Nb Ta Ti Zr                          
  positions in direct lattice
  velocities in cartesian coordinates
 exchange correlation table for  LEXCH =        8
   RHO(1)=    0.500       N(1)  =     2000
   RHO(2)=  100.500       N(2)  =     4000
 


--------------------------------------------------------------------------------------------------------


 ion  position               nearest neighbor table
   1  0.623  0.867  0.376-  34 2.83  25 2.88  24 2.88   9 2.88  13 2.90   4 2.91  61 2.93  15 3.16
                            41 3.35  17 3.40
   2  0.623  0.393  0.547-  14 2.79  31 2.79  23 2.80  33 2.80  26 2.80   7 2.88  10 2.90  62 2.97
                            18 3.06  17 3.17  16 3.19   3 3.22  42 3.34
   3  0.618  0.638  0.627-  32 2.76  14 2.83  23 2.90  33 2.91   8 2.91  26 2.99  27 2.99  45 3.19
                             2 3.22
   4  0.618  0.084  0.450-  31 2.80  24 2.86  34 2.87  13 2.88   1 2.91  10 2.91  25 2.92   7 2.92
                            62 2.98  12 3.13  28 3.16  46 3.24
   5  0.975  0.641  0.551-  30 2.75  42 2.90  56 2.91  27 2.93  63 2.98  52 3.01  54 3.09  47 3.09
                            59 3.11  58 3.23  23 3.26  57 3.27
   6  0.980  0.121  0.378-  29 2.80  28 2.80  53 2.91  41 2.96  51 3.05  55 3.05  60 3.08  57 3.37

   7  0.729  0.343  0.458-  28 2.77  29 2.83  31 2.85   2 2.88  17 2.89  11 2.90   4 2.92  62 3.01
                            63 3.07  42 3.09
   8  0.725  0.900  0.620-  30 2.59  32 2.70  12 2.71  27 2.76  18 2.82   3 2.91  64 3.08  62 3.16

   9  0.517  0.608  0.367-  35 2.84  15 2.85  17 2.87   1 2.88  11 2.89  61 2.95  43 3.10
  10  0.515  0.133  0.540-  18 2.75  36 2.79  16 2.81  12 2.87   2 2.90   4 2.91  31 2.95  46 2.96
                            62 3.06  44 3.15
  11  0.618  0.343  0.369-  24 2.75  34 2.83  31 2.87   9 2.89   7 2.90  61 2.96  43 3.27
  12  0.621  0.874  0.537-  13 2.68   8 2.71  32 2.71  25 2.80  23 2.83  10 2.87  62 2.93  33 2.94
                             4 3.13  44 3.39
  13  0.742  0.843  0.462-  12 2.68  17 2.87   4 2.88   1 2.90  30 2.92  28 2.94  23 2.97  63 2.98
                            41 3.05  57 3.27  62 3.46
  14  0.744  0.405  0.627-  27 2.73   2 2.79  42 2.81   3 2.83  18 2.86  64 2.96  58 3.09
  15  0.394  0.847  0.369-  22 2.68  19 2.76  25 2.83  34 2.84   9 2.85  39 2.98   1 3.16  46 3.43

  16  0.392  0.367  0.543-  21 2.64  20 2.66  26 2.71  10 2.81  33 2.85  37 2.89  31 2.90  40 3.02
                             2 3.19
  17  0.619  0.602  0.458-  25 2.81  33 2.84  31 2.85  23 2.85   9 2.87  13 2.87   7 2.89  61 2.95
                            35 3.03   2 3.17   1 3.40  63 3.44
  18  0.627  0.159  0.622-  10 2.75  26 2.76  62 2.78   8 2.82  14 2.86  32 2.86   2 3.06  36 3.18
                            64 3.27
  19  0.279  0.834  0.451-  15 2.76  35 2.94  46 2.96  39 2.97  25 2.99  44 2.99  60 3.07  51 3.08
                            47 3.12  56 3.25
  20  0.280  0.370  0.621-  67 2.27  16 2.66  36 2.92  26 3.00  52 3.00  21 3.03  40 3.06  45 3.07
                            59 3.12  48 3.15
  21  0.279  0.590  0.543-  16 2.64  45 2.89  52 2.98  59 2.99  44 3.00  35 3.03  33 3.03  20 3.03
                            37 3.07  47 3.12  56 3.14
  22  0.283  0.077  0.361-  15 2.68  46 2.97  43 2.97  34 2.99  51 3.02  55 3.10  60 3.10
  23  0.739  0.633  0.541-  30 2.76   2 2.80  27 2.80  12 2.83  17 2.85   3 2.90  63 2.93  42 2.96
                            13 2.97   5 3.26
  24  0.740  0.115  0.366-  29 2.73  11 2.75  28 2.85   4 2.86   1 2.88  41 3.00
  25  0.496  0.836  0.458-  35 2.78  12 2.80  17 2.81  15 2.83   1 2.88   4 2.92  44 2.98  19 2.99
                            46 2.99  33 3.05
  26  0.497  0.378  0.626-  16 2.71  18 2.76   2 2.80  36 2.85   3 2.99  20 3.00  45 3.02
  27  0.834  0.660  0.630-  68 2.13  14 2.73   8 2.76  58 2.80  23 2.80   5 2.93  30 2.96   3 2.99
                            54 3.04
  28  0.847  0.110  0.455-   7 2.77  62 2.77   6 2.80  24 2.85  57 2.90  13 2.94  53 2.98  29 3.15
                             4 3.16  50 3.19  41 3.36
  29  0.852  0.349  0.376-  24 2.73   6 2.80   7 2.83  53 2.94  61 2.98  49 3.07  28 3.15  63 3.25

  30  0.853  0.869  0.552-   8 2.59   5 2.75  23 2.76  54 2.91  13 2.92  27 2.96  57 2.96  62 2.99
                            50 3.05
  31  0.522  0.339  0.461-   2 2.79   4 2.80  17 2.85   7 2.85  35 2.86  11 2.87  16 2.90  10 2.95
                            46 2.95  43 3.11
  32  0.529  0.896  0.623-  65 2.01   8 2.70  12 2.71   3 2.76  36 2.78  18 2.86  44 2.99  45 3.07

  33  0.498  0.623  0.540-   2 2.80  35 2.83  17 2.84  16 2.85   3 2.91  44 2.92  12 2.94  45 2.94
                            21 3.03  25 3.05
  34  0.499  0.102  0.365-  11 2.83   1 2.83  15 2.84   4 2.87  43 2.91  46 2.98  22 2.99
  35  0.400  0.580  0.451-  25 2.78  33 2.83   9 2.84  31 2.86  37 2.88  39 2.93  19 2.94  21 3.03
                            17 3.03  43 3.08
  36  0.398  0.117  0.622-  67 2.03  65 2.18  32 2.78  10 2.79  26 2.85  38 2.91  20 2.92  40 2.92
                            44 3.15  18 3.18
  37  0.255  0.366  0.464-  35 2.88  16 2.89  47 3.02  60 3.04  43 3.05  21 3.07  55 3.08  46 3.08
                            52 3.16  40 3.24  39 3.39
  38  0.239  0.918  0.628-  65 2.03  67 2.15  56 2.86  36 2.91  44 2.97  40 3.01  59 3.06  48 3.13
                            45 3.26  54 3.34
  39  0.252  0.614  0.376-  35 2.93  19 2.97  15 2.98  47 3.07  43 3.07  51 3.07  55 3.08  37 3.39
                            49 3.53
  40  0.245  0.133  0.549-  67 2.44  36 2.92  38 3.01  16 3.02  60 3.06  20 3.06  44 3.08  52 3.11
                            56 3.19  46 3.22  48 3.22  37 3.24  50 3.46
  41  0.865  0.859  0.370-   6 2.96  24 3.00  61 3.05  13 3.05  57 3.06  49 3.12   1 3.35  28 3.36
                            51 3.49  63 3.53
  42  0.865  0.383  0.546-  14 2.81   5 2.90  23 2.96  62 3.00   7 3.09  58 3.11  63 3.14  50 3.14
                            53 3.20   2 3.34  64 3.35  52 3.41
  43  0.381  0.352  0.373-  34 2.91  22 2.97  37 3.05  39 3.07  35 3.08   9 3.10  31 3.11  55 3.26
                            11 3.27  46 3.29
  44  0.376  0.872  0.547-  65 2.44  33 2.92  38 2.97  25 2.98  19 2.99  32 2.99  21 3.00  40 3.08
                            45 3.13  36 3.15  10 3.15  56 3.36  46 3.36  12 3.39
  45  0.386  0.651  0.630-  65 2.32  21 2.89  33 2.94  26 3.02  32 3.07  20 3.07  44 3.13   3 3.19
                            38 3.26  59 3.35
  46  0.384  0.104  0.456-  31 2.95  19 2.96  10 2.96  22 2.97  34 2.98  25 2.99  37 3.08  40 3.22
                             4 3.24  60 3.27  43 3.29  44 3.36  15 3.43
  47  0.117  0.611  0.465-  37 3.02  39 3.07   5 3.09  56 3.11  19 3.12  21 3.12  53 3.14  49 3.15
                            57 3.17  52 3.20  63 3.42  51 3.52  55 3.80
  48  0.100  0.174  0.639-  66 2.08  67 2.17  50 3.06  38 3.13  20 3.15  58 3.15  52 3.19  54 3.22
                            40 3.22  64 3.27
  49  0.996  0.593  0.368-  63 3.05  29 3.07  41 3.12  47 3.15  51 3.16  55 3.23  53 3.44  39 3.53
                            61 3.65  57 3.82
  50  0.994  0.113  0.544-  30 3.05  48 3.06  64 3.13  42 3.14  57 3.15  52 3.16  28 3.19  56 3.22
                            53 3.27  54 3.27  60 3.34  40 3.46  62 3.55
  51  0.119  0.872  0.375-  60 3.00  22 3.02   6 3.05  39 3.07  19 3.08  57 3.16  49 3.16  41 3.49
                            47 3.52
  52  0.112  0.395  0.553-  21 2.98  20 3.00   5 3.01  59 3.05  40 3.11  50 3.16  37 3.16  48 3.19
                            47 3.20  53 3.22  58 3.28  42 3.41
  53  1.000  0.331  0.453-   6 2.91  29 2.94  28 2.98  60 3.06  63 3.08  55 3.09  47 3.14  42 3.20
                            52 3.22  50 3.27  49 3.44
  54  0.998  0.872  0.628-  68 2.17  30 2.91  56 3.01  27 3.04  59 3.06   5 3.09  48 3.22  64 3.24
                            50 3.27  38 3.34
  55  0.145  0.332  0.368-   6 3.05  37 3.08  39 3.08  53 3.09  22 3.10  49 3.23  60 3.24  43 3.26
                            47 3.80
  56  0.133  0.842  0.543-  38 2.86   5 2.91  54 3.01  57 3.04  59 3.06  47 3.11  21 3.14  40 3.19
                            50 3.22  19 3.25  44 3.36  60 3.51
  57  0.979  0.876  0.465-  28 2.90  30 2.96  56 3.04  41 3.06  63 3.11  60 3.13  50 3.15  51 3.16
                            47 3.17   5 3.27  13 3.27   6 3.37  49 3.82
  58  0.965  0.440  0.645-  66 2.09  68 2.16  27 2.80  14 3.09  59 3.10  42 3.11  64 3.13  48 3.15
                             5 3.23  52 3.28
  59  0.143  0.630  0.626-  68 2.42  21 2.99  52 3.05  38 3.06  54 3.06  56 3.06  58 3.10   5 3.11
                            20 3.12  45 3.35
  60  0.147  0.092  0.451-  51 3.00  37 3.04  53 3.06  40 3.06  19 3.07   6 3.08  22 3.10  57 3.13
                            55 3.24  46 3.27  50 3.34  56 3.51
  61  0.731  0.606  0.367-   1 2.93  17 2.95   9 2.95  11 2.96  29 2.98  41 3.05  63 3.17  49 3.65

  62  0.737  0.130  0.538-  28 2.77  18 2.78  12 2.93   2 2.97   4 2.98  30 2.99  42 3.00   7 3.01
                            10 3.06   8 3.16  64 3.21  13 3.46  50 3.55
  63  0.869  0.592  0.458-  23 2.93  13 2.98   5 2.98  49 3.05   7 3.07  53 3.08  57 3.11  42 3.14
                            61 3.17  29 3.25  47 3.42  17 3.44  41 3.53
  64  0.863  0.148  0.636-  66 2.15  14 2.96   8 3.08  58 3.13  50 3.13  62 3.21  54 3.24  18 3.27
                            48 3.27  42 3.35
  65  0.385  0.893  0.635-  32 2.01  38 2.03  36 2.18  45 2.32  44 2.44
  66  0.978  0.243  0.676-  48 2.08  58 2.09  64 2.15
  67  0.255  0.140  0.637-  36 2.03  38 2.15  48 2.17  20 2.27  40 2.44
  68  0.980  0.662  0.656-  27 2.13  58 2.16  54 2.17  59 2.42
 
  LATTYP: Found a simple orthorhombic cell.
 ALAT       =     9.5644817352
 B/A-ratio  =     1.4398428730
 C/A-ratio  =     2.8922184390
  
  Lattice vectors:
  
 A1 = (   0.0000000000,  -9.5644817352,   0.0000000000)
 A2 = ( -13.7713508606,   0.0000000000,   0.0000000000)
 A3 = (   0.0000000000,   0.0000000000, -27.6625704340)


Analysis of symmetry for initial positions (statically):
=====================================================================
 Subroutine PRICEL returns:
 Original cell was already a primitive cell.
 

 Routine SETGRP: Setting up the symmetry group for a 
 simple orthorhombic supercell.


 Subroutine GETGRP returns: Found  1 space group operations
 (whereof  1 operations were pure point group operations)
 out of a pool of  8 trial point group operations.


The static configuration has the point symmetry C_1 .


Analysis of symmetry for dynamics (positions and initial velocities):
=====================================================================
 Subroutine PRICEL returns:
 Original cell was already a primitive cell.
 

 Routine SETGRP: Setting up the symmetry group for a 
 simple orthorhombic supercell.


 Subroutine GETGRP returns: Found  1 space group operations
 (whereof  1 operations were pure point group operations)
 out of a pool of  8 trial point group operations.


The dynamic configuration has the point symmetry C_1 .


Analysis of constrained symmetry for selective dynamics:
=====================================================================
 Subroutine PRICEL returns:
 Original cell was already a primitive cell.
 

 Routine SETGRP: Setting up the symmetry group for a 
 simple orthorhombic supercell.


 Subroutine GETGRP returns: Found  1 space group operations
 (whereof  1 operations were pure point group operations)
 out of a pool of  8 trial point group operations.


The constrained configuration has the point symmetry C_1 .


 Subroutine INISYM returns: Found  1 space group operations
 (whereof  1 operations are pure point group operations),
 and found     1 'primitive' translations

 
 
 KPOINTS: k-points                                

Automatic generation of k-mesh.
Space group operators:
 irot       det(A)        alpha          n_x          n_y          n_z        tau_x        tau_y        tau_z
    1     1.000000     0.000000     1.000000     0.000000     0.000000     0.000000     0.000000     0.000000
 
 Subroutine IBZKPT returns following result:
 ===========================================
 
 Found      5 irreducible k-points:
 
 Following reciprocal coordinates:
            Coordinates               Weight
  0.000000  0.000000  0.000000      1.000000
  0.333333  0.000000  0.000000      2.000000
  0.000000  0.333333  0.000000      2.000000
  0.333333  0.333333  0.000000      2.000000
 -0.333333  0.333333  0.000000      2.000000
 
 Following cartesian coordinates:
            Coordinates               Weight
  0.000000  0.000000  0.000000      1.000000
  0.024205  0.000000  0.000000      2.000000
  0.000000  0.034851  0.000000      2.000000
  0.024205  0.034851  0.000000      2.000000
 -0.024205  0.034851  0.000000      2.000000
 


--------------------------------------------------------------------------------------------------------




 Dimension of arrays:
   k-points           NKPTS =      5   k-points in BZ     NKDIM =      5   number of bands    NBANDS=    220
   number of dos      NEDOS =    301   number of ions     NIONS =     68
   non local maximal  LDIM  =      6   non local SUM 2l+1 LMDIM =     18
   total plane-waves  NPLWV = 846720
   max r-space proj   IRMAX =   4874   max aug-charges    IRDMAX=  25433
   dimension x,y,z NGX =    84 NGY =   60 NGZ =  168
   dimension x,y,z NGXF=   168 NGYF=  120 NGZF=  336
   support grid    NGXF=   168 NGYF=  120 NGZF=  336
   ions per type =               6  10   4  18  26   4
 NGX,Y,Z   is equivalent  to a cutoff of  10.14, 10.43, 10.10 a.u.
 NGXF,Y,Z  is equivalent  to a cutoff of  20.28, 20.86, 20.19 a.u.


 I would recommend the setting:
   dimension x,y,z NGX =    83 NGY =   57 NGZ =  166
 SYSTEM =  (110) surface                           
 POSCAR =  Al Nb Ta Ti Zr                          

 Startparameter for this run:
   NWRITE =      2    write-flag & timer
   PREC   = normal    normal or accurate (medium, high low for compatibility)
   ISTART =      0    job   : 0-new  1-cont  2-samecut
   ICHARG =      2    charge: 1-file 2-atom 10-const
   ISPIN  =      1    spin polarized calculation?
   LNONCOLLINEAR =      F non collinear calculations
   LSORBIT =      F    spin-orbit coupling
   INIWAV =      1    electr: 0-lowe 1-rand  2-diag
   LASPH  =      F    aspherical Exc in radial PAW
   METAGGA=      F    non-selfconsistent MetaGGA calc.

 Electronic Relaxation 1
   ENCUT  =  600.0 eV  44.10 Ry    6.64 a.u.  27.50 19.10 55.25*2*pi/ulx,y,z
   ENINI  =  600.0     initial cutoff
   ENAUG  =  605.4 eV  augmentation charge cutoff
   NELM   =     60;   NELMIN=  2; NELMDL= -5     # of ELM steps 
   EDIFF  = 0.1E-03   stopping-criterion for ELM
   LREAL  =      T    real-space projection
   NLSPLINE    = F    spline interpolate recip. space projectors
   LCOMPAT=      F    compatible to vasp.4.4
   GGA_COMPAT  = T    GGA compatible to vasp.4.4-vasp.4.6
   LMAXPAW     = -100 max onsite density
   LMAXMIX     =    2 max onsite mixed and CHGCAR
   VOSKOWN=      0    Vosko Wilk Nusair interpolation
   ROPT   =   -0.00050  -0.00050  -0.00050  -0.00050
   ROPT   =   -0.00050  -0.00050
 Ionic relaxation
   EDIFFG = -.1E-01   stopping-criterion for IOM
   NSW    =      0    number of steps for IOM
   NBLOCK =      1;   KBLOCK =      1    inner block; outer block 
   IBRION =     -1    ionic relax: 0-MD 1-quasi-New 2-CG
   NFREE  =      0    steps in history (QN), initial steepest desc. (CG)
   ISIF   =      2    stress and relaxation
   IWAVPR =     10    prediction:  0-non 1-charg 2-wave 3-comb
   ISYM   =      2    0-nonsym 1-usesym 2-fastsym
   LCORR  =      T    Harris-Foulkes like correction to forces

   POTIM  = 0.1000    time-step for ionic-motion
   TEIN   =    0.0    initial temperature
   TEBEG  =    0.0;   TEEND  =   0.0 temperature during run
   SMASS  =  -3.00    Nose mass-parameter (am)
   estimated Nose-frequenzy (Omega)   =  0.10E-29 period in steps =****** mass=  -0.433E-26a.u.
   SCALEE = 1.0000    scale energy and forces
   NPACO  =    256;   APACO  = 16.0  distance and # of slots for P.C.
   PSTRESS=    0.0 pullay stress

  Mass of Ions in am
   POMASS =  26.98 92.91180.95 47.88 91.22 16.00
  Ionic Valenz
   ZVAL   =   3.00 13.00  5.00  4.00  4.00  6.00
  Atomic Wigner-Seitz radii
   RWIGS  =  -1.00 -1.00 -1.00 -1.00 -1.00 -1.00
  virtual crystal weights 
   VCA    =   1.00  1.00  1.00  1.00  1.00  1.00
   NELECT =     368.0000    total number of electrons
   NUPDOWN=      -1.0000    fix difference up-down

 DOS related values:
   EMIN   =  10.00;   EMAX   =-10.00  energy-range for DOS
   EFERMI =   0.00
   ISMEAR =     2;   SIGMA  =   0.10  broadening in eV -4-tet -1-fermi 0-gaus

 Electronic relaxation 2 (details)
   IALGO  =     68    algorithm
   LDIAG  =      T    sub-space diagonalisation (order eigenvalues)
   LSUBROT=      F    optimize rotation matrix (better conditioning)
   TURBO    =      0    0=normal 1=particle mesh
   IRESTART =      0    0=no restart 2=restart with 2 vectors
   NREBOOT  =      0    no. of reboots
   NMIN     =      0    reboot dimension
   EREF     =   0.00    reference energy to select bands
   IMIX   =      4    mixing-type and parameters
     AMIX     =   0.40;   BMIX     =  1.00
     AMIX_MAG =   1.60;   BMIX_MAG =  1.00
     AMIN     =   0.10
     WC   =   100.;   INIMIX=   1;  MIXPRE=   1;  MAXMIX= -45

 Intra band minimization:
   WEIMIN = 0.0000     energy-eigenvalue tresh-hold
   EBREAK =  0.11E-06  absolut break condition
   DEPER  =   0.30     relativ break condition  

   TIME   =   0.40     timestep for ELM

  volume/ion in A,a.u.               =      53.58       361.59
  Fermi-wavevector in a.u.,A,eV,Ry     =   0.762396  1.440719  7.908354  0.581248
  Thomas-Fermi vector in A             =   1.861848
 
 Write flags
   LWAVE  =      F    write WAVECAR
   LCHARG =      F    write CHGCAR
   LVTOT  =      F    write LOCPOT, total local potential
   LVHAR  =      T    write LOCPOT, Hartree potential only
   LELF   =      F    write electronic localiz. function (ELF)
   LORBIT =      0    0 simple, 1 ext, 2 COOP (PROOUT)


 Dipole corrections
   LMONO  =      F    monopole corrections only (constant potential shift)
   LDIPOL =      F    correct potential (dipole corrections)
   IDIPOL =      0    1-x, 2-y, 3-z, 4-all directions 
   EPSILON=  1.0000000 bulk dielectric constant

 Exchange correlation treatment:
   GGA     =    --    GGA type
   LEXCH   =     8    internal setting for exchange type
   VOSKOWN=      0    Vosko Wilk Nusair interpolation
   LHFCALC =     F    Hartree Fock is set to
   LHFONE  =     F    Hartree Fock one center treatment
   AEXX    =    0.0000 exact exchange contribution

 Linear response parameters
   LEPSILON=     F    determine dielectric tensor
   LRPA    =     F    only Hartree local field effects (RPA)
   LNABLA  =     F    use nabla operator in PAW spheres
   LVEL    =     F    velocity operator in full k-point grid
   LINTERFAST=   F  fast interpolation
   KINTER  =     0    interpolate to denser k-point grid
   CSHIFT  =0.1000    complex shift for real part using Kramers Kronig
   OMEGAMAX=  -1.0    maximum frequency
   DEG_THRESHOLD= 0.2000000E-02 threshold for treating states as degnerate
   RTIME   =    0.100 relaxation time in fs

 Orbital magnetization related:
   ORBITALMAG=     F  switch on orbital magnetization
   LCHIMAG   =     F  perturbation theory with respect to B field
   DQ        =  0.001000  dq finite difference perturbation B field



--------------------------------------------------------------------------------------------------------


 Static calculation
 charge density and potential will be updated during run
 non-spin polarized calculation
 RMM-DIIS sequential band-by-band and
  variant of blocked Davidson during initial phase
 perform sub-space diagonalisation
    before iterative eigenvector-optimisation
 modified Broyden-mixing scheme, WC =      100.0
 initial mixing is a Kerker type mixing with AMIX =  0.4000 and BMIX =      1.0000
 Hartree-type preconditioning will be used
 using additional bands           36
 real space projection scheme for non local part
 use partial core corrections
 calculate Harris-corrections to forces 
   (improved forces if not selfconsistent)
 use gradient corrections 
 use of overlap-Matrix (Vanderbilt PP)
 Methfessel and Paxton  Order N= 2 SIGMA  =   0.10


--------------------------------------------------------------------------------------------------------


  energy-cutoff  :      600.00
  volume of cell :     3643.60
      direct lattice vectors                 reciprocal lattice vectors
    13.771350861  0.000000000  0.000000000     0.072614518  0.000000000  0.000000000
     0.000000000  9.564481735  0.000000000     0.000000000  0.104553496  0.000000000
     0.000000000  0.000000000 27.662570434     0.000000000  0.000000000  0.036149931

  length of vectors
    13.771350861  9.564481735 27.662570434     0.072614518  0.104553496  0.036149931


 
 k-points in units of 2pi/SCALE and weight: k-points                                
   0.00000000  0.00000000  0.00000000       0.111
   0.02420484  0.00000000  0.00000000       0.222
   0.00000000  0.03485117  0.00000000       0.222
   0.02420484  0.03485117  0.00000000       0.222
  -0.02420484  0.03485117  0.00000000       0.222
 
 k-points in reciprocal lattice and weights: k-points                                
   0.00000000  0.00000000  0.00000000       0.111
   0.33333333  0.00000000  0.00000000       0.222
   0.00000000  0.33333333  0.00000000       0.222
   0.33333333  0.33333333  0.00000000       0.222
  -0.33333333  0.33333333  0.00000000       0.222
 
 position of ions in fractional coordinates (direct lattice) 
   0.62276447  0.86746430  0.37590333
   0.62284436  0.39321071  0.54651866
   0.61760429  0.63771690  0.62650934
   0.61839700  0.08363760  0.44965952
   0.97494097  0.64094761  0.55082341
   0.97963780  0.12056648  0.37767599
   0.72857308  0.34338307  0.45816820
   0.72457710  0.89967841  0.61953735
   0.51739597  0.60805875  0.36719826
   0.51519745  0.13269829  0.54005549
   0.61811078  0.34297293  0.36889183
   0.62074642  0.87431714  0.53685999
   0.74231148  0.84345710  0.46199300
   0.74427434  0.40533063  0.62701704
   0.39405298  0.84738672  0.36896032
   0.39209097  0.36715463  0.54331742
   0.61928761  0.60162497  0.45752798
   0.62726494  0.15882691  0.62203936
   0.27944195  0.83362269  0.45088327
   0.27974502  0.36986340  0.62141834
   0.27914301  0.59037588  0.54263608
   0.28324246  0.07725573  0.36149931
   0.73884652  0.63272061  0.54094133
   0.74002355  0.11549973  0.36646499
   0.49591756  0.83582580  0.45790018
   0.49700462  0.37818658  0.62598686
   0.83418416  0.66000089  0.63001873
   0.84724605  0.11017048  0.45460239
   0.85243583  0.34907103  0.37639265
   0.85267923  0.86876711  0.55179271
   0.52175105  0.33942658  0.46105252
   0.52867321  0.89560846  0.62313696
   0.49797477  0.62347529  0.54011146
   0.49943882  0.10200214  0.36464270
   0.40016663  0.58028412  0.45130253
   0.39815296  0.11703361  0.62203144
   0.25505811  0.36595738  0.46399110
   0.23897244  0.91775764  0.62811070
   0.25182599  0.61397660  0.37627308
   0.24525912  0.13286267  0.54884492
   0.86539888  0.85904646  0.37036829
   0.86504466  0.38302929  0.54564740
   0.38059813  0.35186696  0.37331264
   0.37575897  0.87177422  0.54682836
   0.38591811  0.65055754  0.63025708
   0.38408008  0.10357511  0.45579618
   0.11657381  0.61110574  0.46457054
   0.09952245  0.17406668  0.63897800
   0.99629861  0.59295863  0.36811234
   0.99427766  0.11256239  0.54392925
   0.11869311  0.87196302  0.37467704
   0.11184117  0.39538893  0.55284577
   0.99977952  0.33051389  0.45306987
   0.99845669  0.87195705  0.62808673
   0.14482272  0.33176249  0.36788561
   0.13303972  0.84188619  0.54320128
   0.97888047  0.87608504  0.46520830
   0.96462375  0.43982813  0.64466100
   0.14331245  0.62950357  0.62586825
   0.14721048  0.09173214  0.45072276
   0.73135245  0.60578495  0.36679988
   0.73708037  0.13036041  0.53815111
   0.86923259  0.59196168  0.45825814
   0.86279314  0.14842104  0.63556370
   0.38490887  0.89312907  0.63455519
   0.97795547  0.24274841  0.67642372
   0.25494250  0.13965250  0.63703469
   0.97979540  0.66226340  0.65625619
 
 position of ions in cartesian coordinates  (Angst):
   8.57630799  8.29684649 10.39845223
   8.57740816  3.76085661 15.11811082
   8.50524539  6.09943163 17.33085864
   8.51616202  0.79995025 12.43873821
  13.42625423  6.13033168 15.23719135
  13.49093588  1.15315590 10.44748880
  10.03343557  3.28428114 12.67411000
   9.97840547  8.60495768 17.13799558
   7.12524148  5.81576681 10.15764776
   7.09496483  1.26919037 14.93932308
   8.51222037  3.28035836 10.20449636
   8.54851675  8.36239030 14.85092741
  10.22263181  8.06723005 12.77991378
  10.24966310  3.87677737 17.34490293
   5.42664188  8.10481479 10.20639088
   5.39962226  3.51164371 15.02955628
   8.52842696  5.75423100 12.65640004
   8.63828554  1.51909711 17.20720762
   3.84829318  7.97316903 12.47259035
   3.85246676  3.53755178 17.19002868
   3.84417632  5.64663928 15.01070880
   3.90063135  0.73891098 10.00000000
  10.17491466  6.05164476 14.96382777
  10.19112400  1.10469510 10.13736353
   6.82945470  7.99424061 12.66669595
   6.84442506  3.61715866 17.31640564
  11.48784277  6.31256648 17.42793740
  11.66772263  1.05372358 12.57547056
  11.73919286  3.33868345 10.41198829
  11.74254491  8.30930713 15.26400476
   7.18521672  3.24643930 12.75389771
   7.28054429  8.56603077 17.23757007
   6.85778523  5.96321804 14.94087122
   6.87794726  0.97559764 10.08695433
   5.51083508  5.55011685 12.48418803
   5.48310415  1.11936582 17.20698857
   3.51249472  3.50019267 12.83518635
   3.29097328  8.77787615 17.37515656
   3.46798404  5.87236796 10.40868071
   3.37754941  1.27076258 15.18246126
  11.91771166  8.21633417 10.24533883
  11.91283346  3.66347661 15.09400973
   5.24135036  3.36542512 10.32678719
   5.17470863  8.33806862 15.12667802
   5.31461374  6.22224571 17.43453074
   5.28930157  0.99064225 12.60849381
   1.60537885  5.84490969 12.85121538
   1.37055859  1.66485762 17.67577401
  13.72037774  5.67134198 10.18293350
  13.69254657  1.07660090 15.04648115
   1.63456451  8.33987442 10.36453009
   1.54020394  3.78169020 15.29313505
  13.76831459  3.16119411 12.53307716
  13.75009744  8.33981727 17.37449348
   1.99440444  3.17313630 10.17666150
   1.83213670  8.05220511 15.02634362
  13.48050634  8.37929939 12.86885734
  13.28417210  4.20672807 17.83298029
   1.97360602  6.02087541 17.31312442
   2.02728715  0.87737042 12.46815015
  10.07171117  5.79401911 10.14662739
  10.15059245  1.24682972 14.88664296
  11.97050705  5.66180669 12.67659812
  11.88182699  1.41957035 17.58132575
   5.30071509  8.54231668 17.55342757
  13.46776796  2.32176274 18.71161866
   3.51090257  1.33570375 17.62201697
  13.49310623  6.33420620 18.15373320
 


--------------------------------------------------------------------------------------------------------


 k-point  1 :   0.0000 0.0000 0.0000  plane waves:  121663
 k-point  2 :   0.3333 0.0000 0.0000  plane waves:  121577
 k-point  3 :   0.0000 0.3333 0.0000  plane waves:  121622
 k-point  4 :   0.3333 0.3333 0.0000  plane waves:  121647
 k-point  5 :  -0.3333 0.3333 0.0000  plane waves:  121647

 maximum and minimum number of plane-waves per node :      5107     5041

 maximum number of plane-waves:    121663
 maximum index in each direction: 
   IXMAX=   27   IYMAX=   19   IZMAX=   55
   IXMIN=  -27   IYMIN=  -19   IZMIN=  -55

 WARNING: aliasing errors must be expected set NGX to 110 to avoid them
 WARNING: aliasing errors must be expected set NGY to  78 to avoid them
 WARNING: aliasing errors must be expected set NGZ to 222 to avoid them
 aliasing errors are usually negligible using standard VASP settings
 and one can safely disregard these warnings

 real space projection operators:
  total allocation   :      29671.98 KBytes
  max/ min on nodes  :       1437.77       1004.92


 parallel 3D FFT for wavefunctions:
    minimum data exchange during FFTs selected (reduces bandwidth)
 parallel 3D FFT for charge:
    minimum data exchange during FFTs selected (reduces bandwidth)


 total amount of memory used by VASP on root node    72454. kBytes
========================================================================

   base      :      30000. kBytes
   nonlr-proj:       7226. kBytes
   fftplans  :       3890. kBytes
   grid      :       8747. kBytes
   one-center:         46. kBytes
   wavefun   :      22545. kBytes
 
     INWAV:  cpu time    0.0000: real time    0.0000
 Broyden mixing: mesh for mixing (old mesh)
   NGX = 55   NGY = 39   NGZ =111
  (NGX  =168   NGY  =120   NGZ  =336)
  gives a total of 238095 points

 initial charge density was supplied:
 charge density of overlapping atoms calculated
 number of electron     368.0000000 magnetization 
 keeping initial charge density in first step


--------------------------------------------------------------------------------------------------------


 Maximum index for non-local projection operator          393
 Maximum index for augmentation-charges         1033 (set IRDMAX)


--------------------------------------------------------------------------------------------------------


 First call to EWALD:  gamma=   0.115
 Maximum number of real-space cells 3x 4x 2
 Maximum number of reciprocal cells 3x 2x 5

 FEWALD executed in parallel
    FEWALD:  cpu time    0.0022: real time    0.0022


----------------------------------------- Iteration    1(   1)  ---------------------------------------


    POTLOK:  cpu time    0.0574: real time    0.0580
    SETDIJ:  cpu time    0.0117: real time    0.0117
     EDDAV:  cpu time    5.0510: real time    5.0544
       DOS:  cpu time    0.0009: real time    0.0009
    --------------------------------------------
      LOOP:  cpu time    5.1243: real time    5.1312

 eigenvalue-minimisations  :  2312
 total energy-change (2. order) : 0.4235554E+04  (-0.1345767E+05)
 number of electron     368.0000000 magnetization 
 augmentation part      368.0000000 magnetization 

 Free energy of the ion-electron system (eV)
  ---------------------------------------------------
  alpha Z        PSCENC =       552.32592117
  Ewald energy   TEWEN  =     76360.02951423
  -Hartree energ DENC   =    -95969.34017315
  -exchange      EXHF   =         0.00000000
  -V(xc)+E(xc)   XCENC  =     -2977.27801182
  PAW double counting   =     20825.47903073   -16741.43993414
  entropy T*S    EENTRO =        -0.00055874
  eigenvalues    EBANDS =       330.32810697
  atomic energy  EATOM  =     21855.45048279
  Solvation  Ediel_sol  =         0.00000000
  ---------------------------------------------------
  free energy    TOTEN  =      4235.55437804 eV

  energy without entropy =     4235.55493678  energy(sigma->0) =     4235.55451773


--------------------------------------------------------------------------------------------------------




----------------------------------------- Iteration    1(   2)  ---------------------------------------


     EDDAV:  cpu time    5.1391: real time    5.1392
       DOS:  cpu time    0.0008: real time    0.0008
    --------------------------------------------
      LOOP:  cpu time    5.1411: real time    5.1468

 eigenvalue-minimisations  :  2404
 total energy-change (2. order) :-0.3853353E+04  (-0.3745451E+04)
 number of electron     368.0000000 magnetization 
 augmentation part      368.0000000 magnetization 

 Free energy of the ion-electron system (eV)
  ---------------------------------------------------
  alpha Z        PSCENC =       552.32592117
  Ewald energy   TEWEN  =     76360.02951423
  -Hartree energ DENC   =    -95969.34017315
  -exchange      EXHF   =         0.00000000
  -V(xc)+E(xc)   XCENC  =     -2977.27801182
  PAW double counting   =     20825.47903073   -16741.43993414
  entropy T*S    EENTRO =         0.00035775
  eigenvalues    EBANDS =     -3523.02541882
  atomic energy  EATOM  =     21855.45048279
  Solvation  Ediel_sol  =         0.00000000
  ---------------------------------------------------
  free energy    TOTEN  =       382.20176874 eV

  energy without entropy =      382.20141099  energy(sigma->0) =      382.20167931


--------------------------------------------------------------------------------------------------------




----------------------------------------- Iteration    1(   3)  ---------------------------------------


     EDDAV:  cpu time    7.8491: real time    7.8491
       DOS:  cpu time    0.0008: real time    0.0008
    --------------------------------------------
      LOOP:  cpu time    7.8509: real time    7.8568

 eigenvalue-minimisations  :  4064
 total energy-change (2. order) :-0.8752087E+03  (-0.8510388E+03)
 number of electron     368.0000000 magnetization 
 augmentation part      368.0000000 magnetization 

 Free energy of the ion-electron system (eV)
  ---------------------------------------------------
  alpha Z        PSCENC =       552.32592117
  Ewald energy   TEWEN  =     76360.02951423
  -Hartree energ DENC   =    -95969.34017315
  -exchange      EXHF   =         0.00000000
  -V(xc)+E(xc)   XCENC  =     -2977.27801182
  PAW double counting   =     20825.47903073   -16741.43993414
  entropy T*S    EENTRO =        -0.00220102
  eigenvalues    EBANDS =     -4398.23152662
  atomic energy  EATOM  =     21855.45048279
  Solvation  Ediel_sol  =         0.00000000
  ---------------------------------------------------
  free energy    TOTEN  =      -493.00689783 eV

  energy without entropy =     -493.00469680  energy(sigma->0) =     -493.00634757


--------------------------------------------------------------------------------------------------------




----------------------------------------- Iteration    1(   4)  ---------------------------------------


     EDDAV:  cpu time    6.9363: real time    6.9363
       DOS:  cpu time    0.0008: real time    0.0008
    --------------------------------------------
      LOOP:  cpu time    6.9383: real time    6.9440

 eigenvalue-minimisations  :  3512
 total energy-change (2. order) :-0.1161925E+03  (-0.1114739E+03)
 number of electron     368.0000000 magnetization 
 augmentation part      368.0000000 magnetization 

 Free energy of the ion-electron system (eV)
  ---------------------------------------------------
  alpha Z        PSCENC =       552.32592117
  Ewald energy   TEWEN  =     76360.02951423
  -Hartree energ DENC   =    -95969.34017315
  -exchange      EXHF   =         0.00000000
  -V(xc)+E(xc)   XCENC  =     -2977.27801182
  PAW double counting   =     20825.47903073   -16741.43993414
  entropy T*S    EENTRO =         0.00483002
  eigenvalues    EBANDS =     -4514.43109165
  atomic energy  EATOM  =     21855.45048279
  Solvation  Ediel_sol  =         0.00000000
  ---------------------------------------------------
  free energy    TOTEN  =      -609.19943181 eV

  energy without entropy =     -609.20426183  energy(sigma->0) =     -609.20063932


--------------------------------------------------------------------------------------------------------




----------------------------------------- Iteration    1(   5)  ---------------------------------------


     EDDAV:  cpu time    7.9382: real time    7.9382
       DOS:  cpu time    0.0008: real time    0.0008
    CHARGE:  cpu time    0.1592: real time    0.1602
    MIXING:  cpu time    0.0047: real time    0.0052
    --------------------------------------------
      LOOP:  cpu time    8.1041: real time    8.1118

 eigenvalue-minimisations  :  4128
 total energy-change (2. order) :-0.1566328E+02  (-0.1521917E+02)
 number of electron     368.0000019 magnetization 
 augmentation part       44.0022682 magnetization 

 Broyden mixing:
  rms(total) = 0.62417E+01    rms(broyden)= 0.62416E+01
  rms(prec ) = 0.68218E+01
  weight for this iteration     100.00

 Free energy of the ion-electron system (eV)
  ---------------------------------------------------
  alpha Z        PSCENC =       552.32592117
  Ewald energy   TEWEN  =     76360.02951423
  -Hartree energ DENC   =    -95969.34017315
  -exchange      EXHF   =         0.00000000
  -V(xc)+E(xc)   XCENC  =     -2977.27801182
  PAW double counting   =     20825.47903073   -16741.43993414
  entropy T*S    EENTRO =         0.00315299
  eigenvalues    EBANDS =     -4530.09269276
  atomic energy  EATOM  =     21855.45048279
  Solvation  Ediel_sol  =         0.00000000
  ---------------------------------------------------
  free energy    TOTEN  =      -624.86270995 eV

  energy without entropy =     -624.86586294  energy(sigma->0) =     -624.86349820


--------------------------------------------------------------------------------------------------------




----------------------------------------- Iteration    1(   6)  ---------------------------------------


    POTLOK:  cpu time    0.0510: real time    0.0510
    SETDIJ:  cpu time    0.0064: real time    0.0064
    EDDIAG:  cpu time    0.7799: real time    0.7807
  RMM-DIIS:  cpu time    4.3692: real time    4.3692
    ORTHCH:  cpu time    0.2273: real time    0.2273
       DOS:  cpu time    0.0007: real time    0.0007
    CHARGE:  cpu time    0.1582: real time    0.1582
    MIXING:  cpu time    0.0029: real time    0.0030
    --------------------------------------------
      LOOP:  cpu time    5.5973: real time    5.6045

 eigenvalue-minimisations  :  3895
 total energy-change (2. order) :-0.4535745E+02  (-0.1467901E+03)
 number of electron     368.0000011 magnetization 
 augmentation part       59.4103072 magnetization 

 Broyden mixing:
  rms(total) = 0.42327E+01    rms(broyden)= 0.42326E+01
  rms(prec ) = 0.54706E+01
  weight for this iteration     100.00

 eigenvalues of (default mixing * dielectric matrix)
  average eigenvalue GAMMA=   0.7229
  0.7229

 Free energy of the ion-electron system (eV)
  ---------------------------------------------------
  alpha Z        PSCENC =       552.32592117
  Ewald energy   TEWEN  =     76360.02951423
  -Hartree energ DENC   =    -96688.73016326
  -exchange      EXHF   =         0.00000000
  -V(xc)+E(xc)   XCENC  =     -2961.20511895
  PAW double counting   =     24557.90371158   -20474.76920446
  entropy T*S    EENTRO =        -0.01034900
  eigenvalues    EBANDS =     -3871.21495443
  atomic energy  EATOM  =     21855.45048279
  Solvation  Ediel_sol  =         0.00000000
  ---------------------------------------------------
  free energy    TOTEN  =      -670.22016031 eV

  energy without entropy =     -670.20981131  energy(sigma->0) =     -670.21757306


--------------------------------------------------------------------------------------------------------




----------------------------------------- Iteration    1(   7)  ---------------------------------------


    POTLOK:  cpu time    0.0496: real time    0.0496
    SETDIJ:  cpu time    0.0063: real time    0.0063
    EDDIAG:  cpu time    0.7930: real time    0.7930
  RMM-DIIS:  cpu time    2.7059: real time    2.7059
    ORTHCH:  cpu time    0.2276: real time    0.2276
       DOS:  cpu time    0.0009: real time    0.0009
    CHARGE:  cpu time    0.1572: real time    0.1572
    MIXING:  cpu time    0.0018: real time    0.0018
    --------------------------------------------
      LOOP:  cpu time    3.9437: real time    3.9498

 eigenvalue-minimisations  :  2426
 total energy-change (2. order) : 0.9281859E+02  (-0.3334584E+02)
 number of electron     368.0000016 magnetization 
 augmentation part       51.4869362 magnetization 

 Broyden mixing:
  rms(total) = 0.31104E+01    rms(broyden)= 0.31104E+01
  rms(prec ) = 0.44806E+01
  weight for this iteration     100.00

 eigenvalues of (default mixing * dielectric matrix)
  average eigenvalue GAMMA=   0.7245
  1.0909  0.3582

 Free energy of the ion-electron system (eV)
  ---------------------------------------------------
  alpha Z        PSCENC =       552.32592117
  Ewald energy   TEWEN  =     76360.02951423
  -Hartree energ DENC   =    -96284.33466112
  -exchange      EXHF   =         0.00000000
  -V(xc)+E(xc)   XCENC  =     -2963.12730118
  PAW double counting   =     24982.29060091   -20911.92783160
  entropy T*S    EENTRO =         0.00029538
  eigenvalues    EBANDS =     -4168.10859179
  atomic energy  EATOM  =     21855.45048279
  Solvation  Ediel_sol  =         0.00000000
  ---------------------------------------------------
  free energy    TOTEN  =      -577.40157120 eV

  energy without entropy =     -577.40186658  energy(sigma->0) =     -577.40164505


--------------------------------------------------------------------------------------------------------




----------------------------------------- Iteration    1(   8)  ---------------------------------------


    POTLOK:  cpu time    0.0497: real time    0.0497
    SETDIJ:  cpu time    0.0064: real time    0.0064
    EDDIAG:  cpu time    0.7837: real time    0.7837
  RMM-DIIS:  cpu time    4.1792: real time    4.1792
    ORTHCH:  cpu time    0.2281: real time    0.2281
       DOS:  cpu time    0.0008: real time    0.0008
    CHARGE:  cpu time    0.1529: real time    0.1529
    MIXING:  cpu time    0.0019: real time    0.0019
    --------------------------------------------
      LOOP:  cpu time    5.4040: real time    5.4104

 eigenvalue-minimisations  :  3722
 total energy-change (2. order) :-0.3017072E+02  (-0.1863627E+02)
 number of electron     368.0000016 magnetization 
 augmentation part       50.7351147 magnetization 

 Broyden mixing:
  rms(total) = 0.30449E+01    rms(broyden)= 0.30449E+01
  rms(prec ) = 0.57858E+01
  weight for this iteration     100.00

 eigenvalues of (default mixing * dielectric matrix)
  average eigenvalue GAMMA=   0.6451
  1.2872  0.3950  0.2531

 Free energy of the ion-electron system (eV)
  ---------------------------------------------------
  alpha Z        PSCENC =       552.32592117
  Ewald energy   TEWEN  =     76360.02951423
  -Hartree energ DENC   =    -96372.23208282
  -exchange      EXHF   =         0.00000000
  -V(xc)+E(xc)   XCENC  =     -2962.13945060
  PAW double counting   =     25774.66047222   -21705.67542450
  entropy T*S    EENTRO =        -0.00345259
  eigenvalues    EBANDS =     -4109.98826699
  atomic energy  EATOM  =     21855.45048279
  Solvation  Ediel_sol  =         0.00000000
  ---------------------------------------------------
  free energy    TOTEN  =      -607.57228709 eV

  energy without entropy =     -607.56883450  energy(sigma->0) =     -607.57142394


--------------------------------------------------------------------------------------------------------




----------------------------------------- Iteration    1(   9)  ---------------------------------------


    POTLOK:  cpu time    0.0496: real time    0.0496
    SETDIJ:  cpu time    0.0062: real time    0.0062
    EDDIAG:  cpu time    0.8038: real time    0.8038
  RMM-DIIS:  cpu time    4.2949: real time    4.2950
    ORTHCH:  cpu time    0.2266: real time    0.2266
       DOS:  cpu time    0.0009: real time    0.0009
    CHARGE:  cpu time    0.1611: real time    0.1612
    MIXING:  cpu time    0.0020: real time    0.0020
    --------------------------------------------
      LOOP:  cpu time    5.5466: real time    5.5527

 eigenvalue-minimisations  :  3798
 total energy-change (2. order) : 0.5073439E+02  (-0.6646839E+01)
 number of electron     368.0000014 magnetization 
 augmentation part       48.8824317 magnetization 

 Broyden mixing:
  rms(total) = 0.17614E+01    rms(broyden)= 0.17614E+01
  rms(prec ) = 0.21814E+01
  weight for this iteration     100.00

 eigenvalues of (default mixing * dielectric matrix)
  average eigenvalue GAMMA=   0.6322
  1.5227  0.4165  0.4165  0.1731

 Free energy of the ion-electron system (eV)
  ---------------------------------------------------
  alpha Z        PSCENC =       552.32592117
  Ewald energy   TEWEN  =     76360.02951423
  -Hartree energ DENC   =    -96411.48039800
  -exchange      EXHF   =         0.00000000
  -V(xc)+E(xc)   XCENC  =     -2960.21833605
  PAW double counting   =     26293.20822860   -22221.94255542
  entropy T*S    EENTRO =         0.00170808
  eigenvalues    EBANDS =     -4024.21246543
  atomic energy  EATOM  =     21855.45048279
  Solvation  Ediel_sol  =         0.00000000
  ---------------------------------------------------
  free energy    TOTEN  =      -556.83790002 eV

  energy without entropy =     -556.83960810  energy(sigma->0) =     -556.83832704


--------------------------------------------------------------------------------------------------------




----------------------------------------- Iteration    1(  10)  ---------------------------------------


    POTLOK:  cpu time    0.0499: real time    0.0499
    SETDIJ:  cpu time    0.0063: real time    0.0063
    EDDIAG:  cpu time    0.7991: real time    0.7991
  RMM-DIIS:  cpu time    3.9660: real time    3.9661
    ORTHCH:  cpu time    0.2292: real time    0.2292
       DOS:  cpu time    0.0009: real time    0.0009
    CHARGE:  cpu time    0.1570: real time    0.1570
    MIXING:  cpu time    0.0021: real time    0.0021
    --------------------------------------------
      LOOP:  cpu time    5.2122: real time    5.2184

 eigenvalue-minimisations  :  3536
 total energy-change (2. order) : 0.7922125E+01  (-0.2831598E+01)
 number of electron     368.0000015 magnetization 
 augmentation part       50.8593903 magnetization 

 Broyden mixing:
  rms(total) = 0.98089E+00    rms(broyden)= 0.98089E+00
  rms(prec ) = 0.11470E+01
  weight for this iteration     100.00

 eigenvalues of (default mixing * dielectric matrix)
  average eigenvalue GAMMA=   0.6442
  1.6068  0.5630  0.5630  0.3118  0.1766

 Free energy of the ion-electron system (eV)
  ---------------------------------------------------
  alpha Z        PSCENC =       552.32592117
  Ewald energy   TEWEN  =     76360.02951423
  -Hartree energ DENC   =    -96459.12843744
  -exchange      EXHF   =         0.00000000
  -V(xc)+E(xc)   XCENC  =     -2956.66484149
  PAW double counting   =     26899.06776842   -22822.42128466
  entropy T*S    EENTRO =        -0.00314506
  eigenvalues    EBANDS =     -3977.57175349
  atomic energy  EATOM  =     21855.45048279
  Solvation  Ediel_sol  =         0.00000000
  ---------------------------------------------------
  free energy    TOTEN  =      -548.91577552 eV

  energy without entropy =     -548.91263046  energy(sigma->0) =     -548.91498925


--------------------------------------------------------------------------------------------------------




----------------------------------------- Iteration    1(  11)  ---------------------------------------


    POTLOK:  cpu time    0.0499: real time    0.0499
    SETDIJ:  cpu time    0.0062: real time    0.0062
    EDDIAG:  cpu time    0.7911: real time    0.7911
  RMM-DIIS:  cpu time    4.2624: real time    4.2625
    ORTHCH:  cpu time    0.2406: real time    0.2406
       DOS:  cpu time    0.0009: real time    0.0009
    CHARGE:  cpu time    0.1554: real time    0.1554
    MIXING:  cpu time    0.0021: real time    0.0021
    --------------------------------------------
      LOOP:  cpu time    5.5103: real time    5.5172

 eigenvalue-minimisations  :  3796
 total energy-change (2. order) :-0.4545402E+00  (-0.2046741E+01)
 number of electron     368.0000014 magnetization 
 augmentation part       52.1095513 magnetization 

 Broyden mixing:
  rms(total) = 0.90396E+00    rms(broyden)= 0.90396E+00
  rms(prec ) = 0.11916E+01
  weight for this iteration     100.00

 eigenvalues of (default mixing * dielectric matrix)
  average eigenvalue GAMMA=   0.6364
  1.6179  0.7148  0.7148  0.1727  0.3298  0.2680

 Free energy of the ion-electron system (eV)
  ---------------------------------------------------
  alpha Z        PSCENC =       552.32592117
  Ewald energy   TEWEN  =     76360.02951423
  -Hartree energ DENC   =    -96475.80396065
  -exchange      EXHF   =         0.00000000
  -V(xc)+E(xc)   XCENC  =     -2954.89037987
  PAW double counting   =     27240.86957154   -23160.50537267
  entropy T*S    EENTRO =        -0.00857626
  eigenvalues    EBANDS =     -3966.83751598
  atomic energy  EATOM  =     21855.45048279
  Solvation  Ediel_sol  =         0.00000000
  ---------------------------------------------------
  free energy    TOTEN  =      -549.37031569 eV

  energy without entropy =     -549.36173943  energy(sigma->0) =     -549.36817163


[...]
  3.392  -0.774  -0.026   0.159  -0.019   0.004  -0.024   0.003
 -0.774   0.195   0.016  -0.099   0.009  -0.001   0.009  -0.001
 -0.026   0.016   1.214   0.012  -0.001  -0.072  -0.001  -0.000
  0.159  -0.099   0.012   0.990   0.014  -0.001  -0.055  -0.001
 -0.019   0.009  -0.001   0.014   1.225  -0.000  -0.001  -0.071
  0.004  -0.001  -0.072  -0.001  -0.000   0.004   0.000   0.000
 -0.024   0.009  -0.001  -0.055  -0.001   0.000   0.003   0.000
  0.003  -0.001  -0.000  -0.001  -0.071   0.000   0.000   0.004


------------------------ aborting loop because EDIFF is reached ----------------------------------------


    CHARGE:  cpu time    0.1524: real time    0.1524
    FORLOC:  cpu time    0.0205: real time    0.0205
    FORNL :  cpu time    0.8906: real time    0.8911
    STRESS:  cpu time    2.6902: real time    2.6904
    FORCOR:  cpu time    0.0734: real time    0.0735
    FORHAR:  cpu time    0.0327: real time    0.0328
    MIXING:  cpu time    0.0067: real time    0.0067
    OFIELD:  cpu time    0.0003: real time    0.0007

  FORCE on cell =-STRESS in cart. coord.  units (eV):
  Direction    XX          YY          ZZ          XY          YZ          ZX
  --------------------------------------------------------------------------------------
  Alpha Z   552.32592   552.32592   552.32592
  Ewald   83753.26842 88083.82953-95477.14376  -843.54223   -92.51809   514.07054
  Hartree 88478.54091 92618.51832-84493.22658  -668.38652   -88.74163   512.54207
  E(xc)   -1563.63102 -1564.99918 -1552.81424    -0.00250    -0.95064     0.31985
  Local  ************************176031.49214  1509.07778   182.69835 -1029.26693
  n-local  -103.60609  -104.59093  -143.71014     9.86333    -1.23368     2.41034
  augment   461.44018   462.32251   457.61853    -1.51368     0.18550    -0.12111
  Kinetic  4585.93842  4572.30658  4609.24142   -10.05044     6.09813    -1.05016
  Fock        0.00000     0.00000     0.00000     0.00000     0.00000     0.00000
  -------------------------------------------------------------------------------------
  Total     -35.09105   -31.61671   -16.21671    -4.55428     5.53795    -1.09541
  in kB     -15.43037   -13.90262    -7.13088    -2.00262     2.43517    -0.48168
  external pressure =      -12.15 kB  Pullay stress =        0.00 kB


 VOLUME and BASIS-vectors are now :
 -----------------------------------------------------------------------------
  energy-cutoff  :      600.00
  volume of cell :     3643.60
      direct lattice vectors                 reciprocal lattice vectors
    13.771350861  0.000000000  0.000000000     0.072614518  0.000000000  0.000000000
     0.000000000  9.564481735  0.000000000     0.000000000  0.104553496  0.000000000
     0.000000000  0.000000000 27.662570434     0.000000000  0.000000000  0.036149931

  length of vectors
    13.771350861  9.564481735 27.662570434     0.072614518  0.104553496  0.036149931


 FORCES acting on ions
    electron-ion (+dipol)            ewald-force                    non-local-force                 convergence-correction
 -----------------------------------------------------------------------------------------------
   -.463E+02 -.336E+02 0.390E+03   0.461E+02 0.333E+02 -.389E+03   0.103E+00 0.892E-01 -.813E+00   0.319E-03 -.110E-02 0.662E-03
   -.127E+02 -.360E+02 -.123E+03   0.128E+02 0.359E+02 0.123E+03   -.747E-01 0.723E-01 0.569E-01   -.694E-03 0.741E-03 -.747E-03
   0.414E+02 0.232E+02 -.371E+03   -.408E+02 -.227E+02 0.370E+03   -.544E+00 -.463E+00 0.975E+00   -.398E-03 0.257E-03 -.886E-03
   0.236E+01 0.472E+01 0.209E+03   -.247E+01 -.456E+01 -.209E+03   0.760E-01 -.282E+00 -.849E+00   -.135E-03 0.476E-04 0.580E-03
   -.625E+02 0.703E+01 -.722E+02   0.623E+02 -.665E+01 0.718E+02   0.196E+00 -.385E+00 0.412E+00   -.164E-04 0.777E-04 -.252E-03
   -.461E+02 0.461E+01 0.334E+03   0.454E+02 -.404E+01 -.332E+03   0.660E+00 -.984E+00 -.227E+01   -.767E-04 0.488E-03 -.191E-03
   -.367E+03 -.981E+01 0.509E+03   0.367E+03 0.106E+02 -.511E+03   0.172E+00 -.356E+00 0.897E+00   -.297E-02 0.586E-02 -.217E-02
   -.241E+03 0.849E+01 -.161E+04   0.239E+03 -.754E+01 0.161E+04   0.130E+01 -.955E+00 0.348E+01   -.258E-02 -.240E-02 -.378E-02
   0.102E+03 -.824E+01 0.167E+04   -.102E+03 0.719E+01 -.166E+04   -.539E+00 0.593E+00 -.434E+01   0.538E-03 -.687E-03 0.400E-02
   0.166E+03 -.169E+02 -.341E+03   -.166E+03 0.170E+02 0.343E+03   0.124E+00 -.124E+00 -.132E+01   -.306E-02 0.473E-03 0.643E-03
   -.519E+02 0.136E+03 0.174E+04   0.526E+02 -.136E+03 -.174E+04   -.514E+00 -.395E+00 -.281E+01   0.329E-02 0.522E-02 0.306E-02
   0.100E+03 0.136E+03 -.337E+03   -.994E+02 -.136E+03 0.338E+03   -.851E+00 0.106E+00 -.301E+00   -.200E-02 -.448E-02 -.762E-03
   -.410E+03 0.551E+01 0.786E+03   0.411E+03 -.658E+01 -.785E+03   -.793E+00 0.135E+01 -.150E+01   -.298E-02 -.601E-02 0.189E-02
   -.685E+02 -.176E+02 -.146E+04   0.697E+02 0.172E+02 0.146E+04   -.123E+01 0.335E+00 0.300E+01   -.213E-02 0.246E-02 -.193E-02
   0.295E+03 -.114E+03 0.158E+04   -.295E+03 0.114E+03 -.157E+04   0.237E+00 -.363E+00 -.416E+01   -.962E-03 -.202E-02 0.276E-02
   0.325E+03 -.150E+03 -.376E+03   -.325E+03 0.150E+03 0.377E+03   0.165E+00 0.101E+00 -.779E+00   -.549E-04 0.294E-02 0.575E-03
   -.970E+01 0.302E+01 0.197E+03   0.925E+01 -.299E+01 -.197E+03   0.541E+00 -.240E+00 0.709E-01   -.346E-03 -.299E-03 0.351E-03
   -.207E+01 -.428E+02 -.645E+03   0.183E+01 0.424E+02 0.642E+03   0.246E+00 0.439E+00 0.234E+01   -.145E-02 -.375E-03 -.462E-03
   0.170E+03 -.198E+01 0.188E+03   -.169E+03 0.190E+01 -.189E+03   -.144E+01 0.430E+00 0.648E+00   0.111E-02 -.554E-03 0.104E-02
   0.101E+03 -.843E+02 -.568E+03   -.996E+02 0.860E+02 0.564E+03   -.155E+01 -.176E+01 0.358E+01   0.768E-03 0.619E-03 -.160E-02
   0.119E+03 -.562E+02 -.110E+03   -.118E+03 0.559E+02 0.110E+03   -.111E+00 0.267E+00 -.247E+00   0.837E-03 -.119E-03 0.131E-03
   0.116E+03 -.554E+02 0.483E+03   -.115E+03 0.554E+02 -.480E+03   -.833E+00 -.188E+00 -.269E+01   -.395E-03 -.141E-03 0.664E-03
   -.908E+02 0.622E+02 -.127E+03   0.906E+02 -.618E+02 0.127E+03   0.198E+00 -.325E+00 0.325E+00   -.598E-03 0.383E-03 -.824E-03
   -.994E+02 0.596E+02 0.536E+03   0.987E+02 -.591E+02 -.533E+03   0.488E+00 -.525E+00 -.275E+01   0.356E-03 0.630E-03 -.174E-03
   0.801E+02 -.975E+01 0.177E+03   -.812E+02 0.921E+01 -.177E+03   0.953E+00 0.782E+00 -.482E+00   -.546E-04 -.143E-02 0.724E-03
   0.184E+02 -.499E+02 -.532E+03   -.195E+02 0.496E+02 0.529E+03   0.112E+01 0.289E+00 0.239E+01   -.885E-03 0.183E-03 -.113E-02
   -.479E+02 -.396E+01 -.436E+03   0.476E+02 0.368E+01 0.433E+03   0.306E+00 0.278E+00 0.268E+01   -.181E-03 0.103E-03 -.122E-02
   -.162E+03 0.653E+01 0.209E+03   0.161E+03 -.630E+01 -.210E+03   0.331E+00 -.401E+00 0.294E+00   -.238E-03 0.417E-03 -.411E-03
   -.149E+03 -.582E+01 0.494E+03   0.148E+03 0.571E+01 -.491E+03   0.676E+00 -.208E-01 -.254E+01   -.597E-03 0.779E-03 0.938E-04
   -.188E+03 -.588E+01 -.129E+03   0.187E+03 0.592E+01 0.129E+03   0.458E+00 -.457E-01 0.382E+00   -.391E-03 -.122E-02 -.222E-03
   0.823E+02 -.195E+01 0.187E+03   -.825E+02 0.240E+01 -.188E+03   0.587E-01 -.712E-01 -.202E-01   -.455E-04 0.152E-02 0.758E-03
   0.420E+02 0.424E+02 -.520E+03   -.414E+02 -.420E+02 0.518E+03   -.645E+00 -.469E+00 0.216E+01   -.365E-03 -.210E-03 -.906E-03
   0.609E+02 0.143E+01 -.148E+03   -.614E+02 -.129E+01 0.148E+03   0.530E+00 -.133E+00 0.526E+00   -.524E-03 -.167E-03 -.786E-03
   0.355E+02 -.121E+01 0.515E+03   -.362E+02 0.110E+01 -.512E+03   0.604E+00 0.614E-01 -.248E+01   -.974E-04 -.154E-03 0.637E-03
   0.130E+03 0.898E+01 0.172E+03   -.129E+03 -.917E+01 -.172E+03   -.686E+00 0.608E+00 -.329E+00   0.967E-03 0.480E-04 0.115E-02
   0.205E+02 -.221E+02 -.477E+03   -.190E+02 0.237E+02 0.475E+03   -.152E+01 -.152E+01 0.234E+01   0.955E-04 0.121E-03 -.821E-03
   0.123E+03 0.369E+01 0.199E+03   -.123E+03 -.356E+01 -.199E+03   0.119E-01 -.152E+00 -.483E+00   0.920E-03 0.512E-03 0.106E-02
   0.114E+03 0.667E+02 -.410E+03   -.115E+03 -.678E+02 0.408E+03   0.122E+01 0.113E+01 0.206E+01   0.491E-03 -.259E-03 -.996E-03
   0.125E+03 0.394E+02 0.440E+03   -.125E+03 -.391E+02 -.437E+03   0.125E+00 -.485E+00 -.281E+01   0.904E-03 0.623E-04 0.893E-03
   0.126E+03 0.303E+02 -.728E+02   -.126E+03 -.299E+02 0.724E+02   -.222E+00 -.380E+00 0.323E+00   0.709E-03 0.233E-03 0.126E-03
   -.982E+02 -.976E+00 0.502E+03   0.985E+02 0.934E+00 -.498E+03   -.491E+00 0.761E-01 -.307E+01   -.670E-03 -.637E-03 0.221E-03
   -.140E+03 0.387E+01 -.965E+02   0.139E+03 -.390E+01 0.969E+02   0.364E+00 0.353E-01 -.462E+00   -.752E-04 0.116E-02 -.670E-03
   0.129E+03 0.278E+02 0.467E+03   -.129E+03 -.281E+02 -.465E+03   -.206E+00 0.326E+00 -.251E+01   0.152E-03 0.976E-03 0.949E-03
   0.132E+03 0.413E+02 -.105E+03   -.131E+03 -.411E+02 0.104E+03   -.616E+00 -.183E+00 0.826E+00   0.233E-03 -.723E-03 -.525E-04
   0.523E+02 0.341E+02 -.477E+03   -.532E+02 -.351E+02 0.473E+03   0.917E+00 0.952E+00 0.365E+01   -.177E-03 -.254E-03 -.138E-02
   0.125E+03 -.483E+01 0.219E+03   -.125E+03 0.452E+01 -.219E+03   0.304E+00 0.132E+00 -.381E-01   -.310E-03 0.407E-04 0.116E-02
   0.299E+02 0.243E+01 0.160E+03   -.297E+02 -.241E+01 -.161E+03   -.378E-01 -.111E+00 0.306E+00   0.206E-03 -.872E-04 0.927E-03
   0.417E+01 0.169E+02 -.396E+03   -.543E+01 -.166E+02 0.394E+03   0.127E+01 -.320E+00 0.227E+01   0.659E-03 0.209E-03 -.504E-03
   -.415E+02 -.163E+00 0.455E+03   0.417E+02 0.542E+00 -.452E+03   -.674E-01 -.262E+00 -.283E+01   -.962E-03 -.515E-03 0.691E-03
   -.623E+02 -.264E+01 -.884E+02   0.622E+02 0.239E+01 0.886E+02   0.603E-01 0.256E+00 -.269E+00   0.807E-03 -.132E-03 0.183E-03
   0.502E+02 -.257E+01 0.434E+03   -.503E+02 0.191E+01 -.431E+03   0.177E-01 0.199E+00 -.303E+01   0.330E-03 0.238E-03 0.494E-03
   0.342E+02 -.626E+01 -.112E+03   -.339E+02 0.606E+01 0.113E+03   -.327E+00 0.199E+00 -.641E+00   0.956E-03 0.597E-03 0.460E-04
   -.710E+02 -.337E+01 0.196E+03   0.711E+02 0.359E+01 -.196E+03   0.623E-01 0.155E+00 0.844E-01   -.541E-04 0.816E-03 -.945E-04
   -.605E+02 -.465E+02 -.383E+03   0.610E+02 0.454E+02 0.381E+03   -.506E+00 0.106E+01 0.245E+01   0.389E-03 -.455E-03 -.765E-03
   0.393E+02 0.647E+00 0.450E+03   -.386E+02 -.505E+00 -.446E+03   -.816E+00 -.299E+00 -.321E+01   -.799E-04 -.285E-03 0.479E-03
   0.244E+02 0.189E+01 -.869E+02   -.239E+02 -.184E+01 0.874E+02   -.512E+00 -.470E-01 -.504E+00   0.743E-03 -.660E-03 0.177E-03
   -.958E+02 0.617E+00 0.169E+03   0.954E+02 -.856E+00 -.169E+03   0.475E+00 0.315E+00 0.780E-01   0.560E-04 -.986E-03 0.472E-03
   -.694E+02 -.559E+01 -.414E+03   0.685E+02 0.476E+01 0.412E+03   0.901E+00 0.837E+00 0.216E+01   0.574E-03 0.358E-03 -.462E-03
   -.263E+02 -.477E+00 -.385E+03   0.273E+02 0.984E+00 0.382E+03   -.976E+00 -.509E+00 0.279E+01   0.742E-03 -.182E-03 -.107E-02
   0.489E+02 -.544E+01 0.201E+03   -.483E+02 0.535E+01 -.201E+03   -.662E+00 0.390E+00 -.128E+00   0.599E-03 0.103E-03 0.344E-03
   -.140E+03 -.427E+02 0.532E+03   0.139E+03 0.421E+02 -.528E+03   0.857E+00 0.317E-01 -.325E+01   -.195E-03 -.516E-03 0.955E-03
   -.138E+03 -.438E+02 -.108E+03   0.138E+03 0.433E+02 0.109E+03   0.285E+00 0.520E+00 -.755E+00   -.947E-03 -.127E-03 -.419E-05
   -.154E+03 0.487E+01 0.195E+03   0.153E+03 -.492E+01 -.196E+03   0.681E+00 0.395E+00 0.689E-01   -.847E-03 -.178E-03 0.461E-04
   -.542E+02 0.351E+02 -.422E+03   0.549E+02 -.341E+02 0.420E+03   -.707E+00 -.103E+01 0.235E+01   0.199E-03 -.715E-04 -.255E-03
   0.867E+02 0.789E+02 -.745E+03   -.869E+02 -.799E+02 0.753E+03   0.225E+00 0.102E+01 -.787E+01   0.107E-02 0.525E-04 -.200E-02
   -.543E+02 0.253E+02 -.805E+03   0.532E+02 -.275E+02 0.820E+03   0.113E+01 0.225E+01 -.147E+02   0.114E-02 0.513E-03 -.171E-03
   0.105E+03 -.834E+01 -.711E+03   -.105E+03 0.796E+01 0.720E+03   0.311E+00 0.372E+00 -.818E+01   0.110E-02 0.651E-03 -.165E-02
   -.961E+02 -.241E+02 -.742E+03   0.977E+02 0.260E+02 0.751E+03   -.161E+01 -.188E+01 -.855E+01   0.820E-03 -.738E-04 -.127E-02
 -----------------------------------------------------------------------------------------------
   0.306E+00 -.829E+00 0.480E+02   0.129E-11 0.497E-13 0.114E-12   -.335E+00 0.798E+00 -.480E+02   -.648E-02 0.237E-02 -.169E-02
 
 
 POSITION                                       TOTAL-FORCE (eV/Angst)
 -----------------------------------------------------------------------------------
      8.57631      8.29685     10.39845        -0.095083     -0.158955     -0.007059
      8.57741      3.76086     15.11811         0.004004      0.000953      0.004225
      8.50525      6.09943     17.33086         0.000820     -0.003927     -0.006715
      8.51616      0.79995     12.43874        -0.030481     -0.129028     -0.248286
     13.42625      6.13033     15.23719         0.000491     -0.002647     -0.002551
     13.49094      1.15316     10.44749        -0.031019     -0.411844     -0.064825
     10.03344      3.28428     12.67411         0.006502      0.460372     -0.607308
      9.97841      8.60496     17.13800         0.004329     -0.003898     -0.000621
      7.12524      5.81577     10.15765        -0.156952     -0.456184      0.898219
      7.09496      1.26919     14.93932         0.001076     -0.002407      0.005100
      8.51222      3.28036     10.20450         0.268351      0.051710      0.739448
      8.54852      8.36239     14.85093        -0.000185     -0.003607      0.002936
     10.22263      8.06723     12.77991         0.211175      0.276901     -0.600550
     10.24966      3.87678     17.34490         0.008653     -0.005126     -0.002006
      5.42664      8.10481     10.20639         0.276281      0.096888      0.936426
      5.39962      3.51164     15.02956         0.001461      0.000473      0.004364
      8.52843      5.75423     12.65640         0.082892     -0.202004     -0.045211
      8.63829      1.51910     17.20721        -0.001815     -0.002125     -0.004118
      3.84829      7.97317     12.47259        -0.419597      0.352466     -0.447623
      3.85247      3.53755     17.19003         0.006077     -0.004324     -0.005285
      3.84418      5.64664     15.01071        -0.001065      0.001594     -0.000859
      3.90063      0.73891     10.00000         0.517651     -0.149048      0.325326
     10.17491      6.05164     14.96383         0.005459     -0.003715     -0.000025
     10.19112      1.10470     10.13736        -0.200564      0.017001      0.362850
      6.82945      7.99424     12.66670        -0.129632      0.238000     -0.358184
      6.84443      3.61716     17.31641        -0.000916     -0.004407     -0.002527
     11.48784      6.31257     17.42794        -0.005083     -0.001360     -0.002963
     11.66772      1.05372     12.57547        -0.104089     -0.164814     -0.690392
     11.73919      3.33868     10.41199        -0.291041     -0.124850      0.602054
     11.74254      8.30931     15.26400         0.000237     -0.001163      0.001550
      7.18522      3.24644     12.75390        -0.168738      0.384159     -0.500484
      7.28054      8.56603     17.23757        -0.002045     -0.003737     -0.001058
      6.85779      5.96322     14.94087        -0.001377      0.002971      0.001260
      6.87795      0.97560     10.08695        -0.075320     -0.045526      0.157538
      5.51084      5.55012     12.48419         0.006153      0.410182     -0.165975
      5.48310      1.11937     17.20699        -0.006080      0.004393     -0.001409
      3.51249      3.50019     12.83519        -0.099055     -0.026166     -0.401496
      3.29097      8.77788     17.37516         0.002866      0.000027     -0.002164
      3.46798      5.87237     10.40868         0.034016     -0.238862     -0.076668
      3.37755      1.27076     15.18246         0.001159     -0.003099      0.004751
     11.91771      8.21633     10.24534        -0.211521      0.034405      0.655899
     11.91283      3.66348     15.09401        -0.001261      0.002017      0.001655
      5.24135      3.36543     10.32679         0.179665      0.087184      0.183766
      5.17471      8.33807     15.12668        -0.001569      0.001208      0.007891
      5.31461      6.22225     17.43453        -0.000821     -0.000769     -0.009320
      5.28930      0.99064     12.60849         0.000949     -0.174666     -0.257127
      1.60538      5.84491     12.85122         0.185682     -0.089686     -0.416573
      1.37056      1.66486     17.67577         0.004569     -0.000424     -0.002798
     13.72038      5.67134     10.18293         0.214159      0.116474      0.625056
     13.69255      1.07660     15.04648        -0.000694     -0.001583     -0.002406
      1.63456      8.33987     10.36453        -0.011359     -0.466687      0.194765
      1.54020      3.78169     15.29314        -0.004567      0.001541      0.001186
     13.76831      3.16119     12.53308         0.128591      0.374916     -0.344604
     13.75010      8.33982     17.37449        -0.001267     -0.000300     -0.000793
      1.99440      3.17314     10.17666        -0.094548     -0.156012      0.717573
      1.83214      8.05221     15.02634        -0.000972      0.004012      0.004152
     13.48051      8.37930     12.86886         0.065688      0.075423     -0.353737
     13.28417      4.20673     17.83298        -0.000676      0.003699     -0.002021
      1.97361      6.02088     17.31312         0.003173     -0.002234     -0.004994
      2.02729      0.87737     12.46815         0.028581      0.301763     -0.458498
     10.07171      5.79402     10.14663         0.143774     -0.590718      0.170403
     10.15059      1.24683     14.88664        -0.001027      0.000587      0.004535
     11.97051      5.66181     12.67660        -0.245118      0.343268     -0.509001
     11.88183      1.41957     17.58133        -0.000626      0.000073     -0.000884
      5.30072      8.54232     17.55343        -0.000628     -0.004002     -0.000990
     13.46777      2.32176     18.71162        -0.000849     -0.000202     -0.003254
      3.51090      1.33570     17.62202         0.001723     -0.001201     -0.002089
     13.49311      6.33421     18.15373         0.001435     -0.003353      0.002523
 -----------------------------------------------------------------------------------
    total drift:                               -0.034958     -0.028931     -0.010074


--------------------------------------------------------------------------------------------------------



  FREE ENERGIE OF THE ION-ELECTRON SYSTEM (eV)
  ---------------------------------------------------
  free  energy   TOTEN  =      -547.32411341 eV

  energy  without entropy=     -547.32508472  energy(sigma->0) =     -547.32435623
 


--------------------------------------------------------------------------------------------------------


    POTLOK:  cpu time    0.0620: real time    0.0622


--------------------------------------------------------------------------------------------------------


     LOOP+:  cpu time  182.5199: real time  182.7666
    4ORBIT:  cpu time    0.0000: real time    0.0000

 total amount of memory used by VASP on root node    72454. kBytes
========================================================================

   base      :      30000. kBytes
   nonlr-proj:       7226. kBytes
   fftplans  :       3890. kBytes
   grid      :       8747. kBytes
   one-center:         46. kBytes
   wavefun   :      22545. kBytes
 
  
  
 General timing and accounting informations for this job:
 ========================================================
  
                  Total CPU time used (sec):      198.338
                            User time (sec):      194.756
                          System time (sec):        3.582
                         Elapsed time (sec):      198.559
  
                   Maximum memory used (kb):      147396.
                   Average memory used (kb):           0.
  
                          Minor page faults:        38235
                          Major page faults:            0
                 Voluntary context switches:         2122
