 vasp.5.4.1 05Feb16 (build Mar 19 2020 08:54:17) complex                        
  
 executed on           IFC91_ompi date 2021.11.11  22:58:32
 running on   96 total cores
 distrk:  each k-point on   96 cores,    1 groups
 distr:  one band on NCORES_PER_BAND=  24 cores,    4 groups


--------------------------------------------------------------------------------------------------------


 INCAR:
 POTCAR:    PAW_PBE Al 04Jan2001                  
 POTCAR:    PAW_PBE Nb_sv 25May2007               
 POTCAR:    PAW_PBE Ta 17Jan2003                  
 POTCAR:    PAW_PBE Ti 08Apr2002                  
 POTCAR:   PAW_PBE Zr 08Apr2002                   
 POTCAR:    PAW_PBE O 08Apr2002                   

 ----------------------------------------------------------------------------- 
|                                                                             |
|           W    W    AA    RRRRR   N    N  II  N    N   GGGG   !!!           |
|           W    W   A  A   R    R  NN   N  II  NN   N  G    G  !!!           |
|           W    W  A    A  R    R  N N  N  II  N N  N  G       !!!           |
|           W WW W  AAAAAA  RRRRR   N  N N  II  N  N N  G  GGG   !            |
|           WW  WW  A    A  R   R   N   NN  II  N   NN  G    G                |
|           W    W  A    A  R    R  N    N  II  N    N   GGGG   !!!           |
|                                                                             |
|      For optimal performance we recommend to set                            |
|        NCORE= 4 - approx SQRT( number of cores)                             |
|      NCORE specifies how many cores store one orbital (NPAR=cpu/NCORE).     |
|      This setting can  greatly improve the performance of VASP for DFT.     |
|      The default, NPAR=number of cores might be grossly inefficient         |
|      on modern multi-core architectures or massively parallel machines.     |
|      Do your own testing !!!!                                               |
|      Unfortunately you need to use the default for GW and RPA calculations. |
|      (for HF NCORE is supported but not extensively tested yet)             |
|                                                                             |
 ----------------------------------------------------------------------------- 

 POTCAR:    PAW_PBE Al 04Jan2001                  
   VRHFIN =Al: s2p1                                                             
   LEXCH  = PE                                                                  
   EATOM  =    53.5387 eV,    3.9350 Ry                                         
                                                                                
   TITEL  = PAW_PBE Al 04Jan2001                                                
   LULTRA =        F    use ultrasoft PP ?                                      
   IUNSCR =        1    unscreen: 0-lin 1-nonlin 2-no                           
   RPACOR =    1.500    partial core radius                                     
   POMASS =   26.981; ZVAL   =    3.000    mass and valenz                      
   RCORE  =    1.900    outmost cutoff radius                                   
   RWIGS  =    2.650; RWIGS  =    1.402    wigner-seitz radius (au A)           
   ENMAX  =  240.300; ENMIN  =  180.225 eV                                      
   ICORE  =        2    local potential                                         
   LCOR   =        T    correct aug charges                                     
   LPAW   =        T    paw PP                                                  
   EAUG   =  291.052                                                            
   DEXC   =    0.000                                                            
   RMAX   =    1.939    core radius for proj-oper                               
   RAUG   =    1.300    factor for augmentation sphere                          
   RDEP   =    1.966    radius for radial grids                                 
   RDEPT  =    1.856    core radius for aug-charge                              
                                                                                
   Atomic configuration                                                         
    6 entries                                                                   
     n  l   j            E        occ.                                          
     1  0  0.50     -1511.1048   2.0000                                         
     2  0  0.50      -108.1629   2.0000                                         
     2  1  1.50       -69.6402   6.0000                                         
     3  0  0.50        -7.7528   2.0000                                         
     3  1  1.50        -2.7121   1.0000                                         
     3  2  2.50        -2.7212   0.0000                                         
   Description                                                                  
     l       E           TYP  RCUT    TYP  RCUT                                 
     0     -7.7528455     23  1.900                                             
     0     -3.3096929     23  1.900                                             
     1     -2.7120682     23  1.900                                             
     1     13.6058260     23  1.900                                             
     2     -2.7211652      7  1.900                                             
  local pseudopotential read in
  partial core-charges read in
  partial kinetic energy density read in
  atomic valenz-charges read in
  non local Contribution for L=           0  read in
    real space projection operators read in
  non local Contribution for L=           0  read in
    real space projection operators read in
  non local Contribution for L=           1  read in
    real space projection operators read in
  non local Contribution for L=           1  read in
    real space projection operators read in
    PAW grid and wavefunctions read in
 
   number of l-projection  operators is LMAX  =           4
   number of lm-projection operators is LMMAX =           8
 
 POTCAR:    PAW_PBE Nb_sv 25May2007               
   VRHFIN =Nb: 4p5s4d                                                           
   LEXCH  = PE                                                                  
   EATOM  =  1555.1913 eV,  114.3033 Ry                                         
                                                                                
   TITEL  = PAW_PBE Nb_sv 25May2007                                             
   LULTRA =        F    use ultrasoft PP ?                                      
   IUNSCR =        1    unscreen: 0-lin 1-nonlin 2-no                           
   RPACOR =    1.800    partial core radius                                     
   POMASS =   92.910; ZVAL   =   13.000    mass and valenz                      
   RCORE  =    2.400    outmost cutoff radius                                   
   RWIGS  =    2.400; RWIGS  =    1.270    wigner-seitz radius (au A)           
   ENMAX  =  293.235; ENMIN  =  219.927 eV                                      
   ICORE  =        3    local potential                                         
   LCOR   =        T    correct aug charges                                     
   LPAW   =        T    paw PP                                                  
   EAUG   =  455.659                                                            
   DEXC   =    0.000                                                            
   RMAX   =    2.456    core radius for proj-oper                               
   RAUG   =    1.300    factor for augmentation sphere                          
   RDEP   =    2.451    radius for radial grids                                 
   RDEPT  =    1.956    core radius for aug-charge                              
                                                                                
   Atomic configuration                                                         
   11 entries                                                                   
     n  l   j            E        occ.                                          
     1  0  0.50    -18805.2457   2.0000                                         
     2  0  0.50     -2630.2869   2.0000                                         
     2  1  1.50     -2348.4046   6.0000                                         
     3  0  0.50      -438.8757   2.0000                                         
     3  1  1.50      -346.7588   6.0000                                         
     3  2  2.50      -196.2560  10.0000                                         
     4  0  0.50       -58.3859   2.0000                                         
     5  0  0.50        -3.9816   1.0000                                         
     4  1  1.50       -34.5141   6.0000                                         
     4  2  2.50        -3.0408   4.0000                                         
     4  3  2.50        -1.3606   0.0000                                         
   Description                                                                  
     l       E           TYP  RCUT    TYP  RCUT                                 
     0    -58.3859094     23  2.200                                             
     0     -3.9816262     23  2.200                                             
     1    -34.5140738     23  2.200                                             
     1     13.6058260     23  2.200                                             
     2     -3.0408010     23  2.200                                             
     2     -0.1283038     23  2.200                                             
     3     -1.3605826     23  2.400                                             
  local pseudopotential read in
  partial core-charges read in
  partial kinetic energy density read in
  atomic valenz-charges read in
  non local Contribution for L=           0  read in
    real space projection operators read in
  non local Contribution for L=           0  read in
    real space projection operators read in
  non local Contribution for L=           1  read in
    real space projection operators read in
  non local Contribution for L=           1  read in
    real space projection operators read in
  non local Contribution for L=           2  read in
    real space projection operators read in
  non local Contribution for L=           2  read in
    real space projection operators read in
    PAW grid and wavefunctions read in
 
   number of l-projection  operators is LMAX  =           6
   number of lm-projection operators is LMMAX =          18
 
 POTCAR:    PAW_PBE Ta 17Jan2003                  
   VRHFIN =Ta:  6s5d                                                            
   LEXCH  = PE                                                                  
   EATOM  =   130.6506 eV,    9.6025 Ry                                         
                                                                                
   TITEL  = PAW_PBE Ta 17Jan2003                                                
   LULTRA =        F    use ultrasoft PP ?                                      
   IUNSCR =        1    unscreen: 0-lin 1-nonlin 2-no                           
   RPACOR =    2.330    partial core radius                                     
   POMASS =  180.948; ZVAL   =    5.000    mass and valenz                      
   RCORE  =    2.900    outmost cutoff radius                                   
   RWIGS  =    2.840; RWIGS  =    1.503    wigner-seitz radius (au A)           
   ENMAX  =  223.667; ENMIN  =  167.750 eV                                      
   RCLOC  =    2.205    cutoff for local pot                                    
   LCOR   =        T    correct aug charges                                     
   LPAW   =        T    paw PP                                                  
   EAUG   =  332.075                                                            
   DEXC   =    0.000                                                            
   RMAX   =    2.970    core radius for proj-oper                               
   RAUG   =    1.300    factor for augmentation sphere                          
   RDEP   =    3.060    radius for radial grids                                 
   RDEPT  =    2.354    core radius for aug-charge                              
                                                                                
   Atomic configuration                                                         
   16 entries                                                                   
     n  l   j            E        occ.                                          
     1  0  0.50    -67341.2807   2.0000                                         
     2  0  0.50    -11566.9376   2.0000                                         
     2  1  1.50    -10134.1182   6.0000                                         
     3  0  0.50     -2648.5620   2.0000                                         
     3  1  1.50     -2222.6012   6.0000                                         
     3  2  2.50     -1726.3120  10.0000                                         
     4  0  0.50      -538.6961   2.0000                                         
     4  1  1.50      -399.0129   6.0000                                         
     4  2  2.50      -220.3959  10.0000                                         
     4  3  3.50       -23.0374  14.0000                                         
     5  0  0.50       -71.2901   2.0000                                         
     5  1  1.50       -37.8225   6.0000                                         
     5  2  2.50        -2.6455   4.0000                                         
     6  0  0.50        -4.9623   1.0000                                         
     6  1  1.50        -1.3606   0.0000                                         
     5  3  2.50        -1.3606   0.0000                                         
   Description                                                                  
     l       E           TYP  RCUT    TYP  RCUT                                 
     2     -2.6455043     23  2.500                                             
     2     -0.6258895     23  2.500                                             
     0     -4.9622780     23  2.500                                             
     0      4.7531321     23  2.500                                             
     1     -1.3605826     23  2.900                                             
     1     27.2116520     23  2.900                                             
  local pseudopotential read in
  partial core-charges read in
  partial kinetic energy density read in
  atomic valenz-charges read in
  non local Contribution for L=           2  read in
    real space projection operators read in
  non local Contribution for L=           2  read in
    real space projection operators read in
  non local Contribution for L=           0  read in
    real space projection operators read in
  non local Contribution for L=           0  read in
    real space projection operators read in
  non local Contribution for L=           1  read in
    real space projection operators read in
  non local Contribution for L=           1  read in
    real space projection operators read in
    PAW grid and wavefunctions read in
 
   number of l-projection  operators is LMAX  =           6
   number of lm-projection operators is LMMAX =          18
 
 POTCAR:    PAW_PBE Ti 08Apr2002                  
   VRHFIN =Ti: d3 s1                                                            
   LEXCH  = PE                                                                  
   EATOM  =    94.7928 eV,    6.9671 Ry                                         
                                                                                
   TITEL  = PAW_PBE Ti 08Apr2002                                                
   LULTRA =        F    use ultrasoft PP ?                                      
   IUNSCR =        1    unscreen: 0-lin 1-nonlin 2-no                           
   RPACOR =    2.200    partial core radius                                     
   POMASS =   47.880; ZVAL   =    4.000    mass and valenz                      
   RCORE  =    2.800    outmost cutoff radius                                   
   RWIGS  =    2.500; RWIGS  =    1.323    wigner-seitz radius (au A)           
   ENMAX  =  178.330; ENMIN  =  133.747 eV                                      
   RCLOC  =    2.215    cutoff for local pot                                    
   LCOR   =        T    correct aug charges                                     
   LPAW   =        T    paw PP                                                  
   EAUG   =  328.883                                                            
   DEXC   =    0.000                                                            
   RMAX   =    2.868    core radius for proj-oper                               
   RAUG   =    1.300    factor for augmentation sphere                          
   RDEP   =    2.885    radius for radial grids                                 
   RDEPT  =    2.320    core radius for aug-charge                              
                                                                                
   Atomic configuration                                                         
    9 entries                                                                   
     n  l   j            E        occ.                                          
     1  0  0.50     -4865.3608   2.0000                                         
     2  0  0.50      -533.1367   2.0000                                         
     2  1  1.50      -440.5031   6.0000                                         
     3  0  0.50       -59.3186   2.0000                                         
     3  1  1.50       -35.7012   6.0000                                         
     3  2  2.50        -1.9157   3.0000                                         
     4  0  0.50        -3.7291   1.0000                                         
     4  1  1.50        -4.0817   0.0000                                         
     4  3  2.50        -1.3606   0.0000                                         
   Description                                                                  
     l       E           TYP  RCUT    TYP  RCUT                                 
     2     -1.9156924     23  2.800                                             
     2     -0.4062961     23  2.800                                             
     0     -3.7290832     23  2.800                                             
     0     20.4087390     23  2.800                                             
     1     -5.4423304     23  2.800                                             
  local pseudopotential read in
  partial core-charges read in
  partial kinetic energy density read in
  atomic valenz-charges read in
  non local Contribution for L=           2  read in
    real space projection operators read in
  non local Contribution for L=           2  read in
    real space projection operators read in
  non local Contribution for L=           0  read in
    real space projection operators read in
  non local Contribution for L=           0  read in
    real space projection operators read in
  non local Contribution for L=           1  read in
    real space projection operators read in
    PAW grid and wavefunctions read in
 
   number of l-projection  operators is LMAX  =           5
   number of lm-projection operators is LMMAX =          15
 
 POTCAR:   PAW_PBE Zr 08Apr2002                   
   VRHFIN =Zr: 5s4d5p                                                           
   LEXCH  = PE                                                                  
   EATOM  =    77.8472 eV,    5.7216 Ry                                         
                                                                                
   TITEL  = PAW_PBE Zr 08Apr2002                                                
   LULTRA =        F    use ultrasoft PP ?                                      
   IUNSCR =        1    unscreen: 0-lin 1-nonlin 2-no                           
   RPACOR =    2.200    partial core radius                                     
   POMASS =   91.224; ZVAL   =    4.000    mass and valenz                      
   RCORE  =    3.000    outmost cutoff radius                                   
   RWIGS  =    3.070; RWIGS  =    1.625    wigner-seitz radius (au A)           
   ENMAX  =  154.632; ENMIN  =  115.974 eV                                      
   RCLOC  =    2.213    cutoff for local pot                                    
   LCOR   =        T    correct aug charges                                     
   LPAW   =        T    paw PP                                                  
   EAUG   =  243.217                                                            
   DEXC   =    -.082                                                            
   RMAX   =    3.708    core radius for proj-oper                               
   RAUG   =    1.300    factor for augmentation sphere                          
   RDEP   =    3.146    radius for radial grids                                 
   QCUT   =   -3.371; QGAM   =    6.742    optimization parameters              
                                                                                
   Description                                                                  
     l     E      TYP  RCUT    TYP  RCUT                                        
     2   .000     23  3.000                                                     
     2   .000     23  3.000                                                     
     0   .000     23  3.000                                                     
     0  2.000     23  3.000                                                     
     1  -.400     23  3.000                                                     
     3   .000      7   .000                                                     
  local pseudopotential read in
  partial core-charges read in
  atomic valenz-charges read in
  non local Contribution for L=           2  read in
    real space projection operators read in
  non local Contribution for L=           2  read in
    real space projection operators read in
  non local Contribution for L=           0  read in
    real space projection operators read in
  non local Contribution for L=           0  read in
    real space projection operators read in
  non local Contribution for L=           1  read in
    real space projection operators read in
    PAW grid and wavefunctions read in
 
   number of l-projection  operators is LMAX  =           5
   number of lm-projection operators is LMMAX =          15
 
 POTCAR:    PAW_PBE O 08Apr2002                   
   VRHFIN =O: s2p4                                                              
   LEXCH  = PE                                                                  
   EATOM  =   432.3788 eV,   31.7789 Ry                                         
                                                                                
   TITEL  = PAW_PBE O 08Apr2002                                                 
   LULTRA =        F    use ultrasoft PP ?                                      
   IUNSCR =        1    unscreen: 0-lin 1-nonlin 2-no                           
   RPACOR =    1.200    partial core radius                                     
   POMASS =   16.000; ZVAL   =    6.000    mass and valenz                      
   RCORE  =    1.520    outmost cutoff radius                                   
   RWIGS  =    1.550; RWIGS  =    0.820    wigner-seitz radius (au A)           
   ENMAX  =  400.000; ENMIN  =  300.000 eV                                      
   ICORE  =        2    local potential                                         
   LCOR   =        T    correct aug charges                                     
   LPAW   =        T    paw PP                                                  
   EAUG   =  605.392                                                            
   DEXC   =    0.000                                                            
   RMAX   =    1.553    core radius for proj-oper                               
   RAUG   =    1.300    factor for augmentation sphere                          
   RDEP   =    1.550    radius for radial grids                                 
   RDEPT  =    1.329    core radius for aug-charge                              
                                                                                
   Atomic configuration                                                         
    4 entries                                                                   
     n  l   j            E        occ.                                          
     1  0  0.50      -514.6923   2.0000                                         
     2  0  0.50       -23.9615   2.0000                                         
     2  1  0.50        -9.0305   4.0000                                         
     3  2  1.50        -9.5241   0.0000                                         
   Description                                                                  
     l       E           TYP  RCUT    TYP  RCUT                                 
     0    -23.9615318     23  1.200                                             
     0     -9.5240782     23  1.200                                             
     1     -9.0304911     23  1.520                                             
     1      8.1634956     23  1.520                                             
     2     -9.5240782      7  1.500                                             
  local pseudopotential read in
  partial core-charges read in
  partial kinetic energy density read in
  kinetic energy density of atom read in
  atomic valenz-charges read in
  non local Contribution for L=           0  read in
    real space projection operators read in
  non local Contribution for L=           0  read in
    real space projection operators read in
  non local Contribution for L=           1  read in
    real space projection operators read in
  non local Contribution for L=           1  read in
    real space projection operators read in
    PAW grid and wavefunctions read in
 
   number of l-projection  operators is LMAX  =           4
   number of lm-projection operators is LMMAX =           8
 
 Optimization of the real space projectors (new method)

 maximal supplied QI-value         = 19.84
 optimisation between [QCUT,QGAM] = [ 12.50, 25.00] = [ 43.76,175.03] Ry 
 Optimized for a Real-space Cutoff    1.06 Angstroem

   l    n(q)    QCUT    max X(q) W(low)/X(q) W(high)/X(q)  e(spline) 
   0      8    12.501   176.870    0.16E-03    0.12E-03    0.66E-07
   0      8    12.501   105.762    0.15E-03    0.12E-03    0.64E-07
   1      7    12.501    55.370    0.36E-03    0.38E-03    0.67E-07
   1      7    12.501    20.208    0.32E-03    0.35E-03    0.64E-07
 Optimization of the real space projectors (new method)

 maximal supplied QI-value         = 15.68
 optimisation between [QCUT,QGAM] = [ 12.55, 25.10] = [ 44.09,176.36] Ry 
 Optimized for a Real-space Cutoff    1.56 Angstroem

   l    n(q)    QCUT    max X(q) W(low)/X(q) W(high)/X(q)  e(spline) 
   0     12    12.548    10.201    0.21E-04    0.36E-05    0.83E-07
   0     12    12.548     8.174    0.31E-04    0.62E-05    0.15E-06
   1     11    12.548     3.488    0.79E-05    0.23E-04    0.21E-06
   1     11    12.548     4.917    0.56E-04    0.13E-03    0.11E-05
   2     11    12.548   153.744    0.25E-03    0.10E-03    0.15E-05
   2     11    12.548   126.342    0.25E-03    0.10E-03    0.15E-05
 Optimization of the real space projectors (new method)

 maximal supplied QI-value         = 12.85
 optimisation between [QCUT,QGAM] = [ 12.46, 25.06] = [ 43.51,175.83] Ry 
 Optimized for a Real-space Cutoff    1.56 Angstroem

   l    n(q)    QCUT    max X(q) W(low)/X(q) W(high)/X(q)  e(spline) 
   2     11    12.465    62.315    0.36E-03    0.20E-03    0.15E-05
   2     11    12.465    52.185    0.36E-03    0.20E-03    0.15E-05
   0     12    12.465   103.837    0.22E-04    0.37E-05    0.56E-06
   0     12    12.465    59.728    0.20E-04    0.34E-05    0.51E-06
   1     11    12.465    13.958    0.44E-03    0.81E-03    0.81E-05
   1     11    12.465     8.441    0.31E-03    0.56E-03    0.56E-05
 Optimization of the real space projectors (new method)

 maximal supplied QI-value         = 13.42
 optimisation between [QCUT,QGAM] = [ 12.48, 25.09] = [ 43.60,176.28] Ry 
 Optimized for a Real-space Cutoff    1.56 Angstroem

   l    n(q)    QCUT    max X(q) W(low)/X(q) W(high)/X(q)  e(spline) 
   2     11    12.478    49.363    0.45E-03    0.34E-03    0.89E-06
   2     11    12.478    47.669    0.44E-03    0.33E-03    0.87E-06
   0     12    12.478    26.374    0.17E-03    0.37E-04    0.21E-05
   0     12    12.478    11.549    0.13E-03    0.31E-04    0.17E-05
   1     11    12.478     9.492    0.91E-05    0.64E-04    0.34E-06
 Optimization of the real space projectors (new method)

 maximal supplied QI-value         = 12.47
 optimisation between [QCUT,QGAM] = [ 12.47, 25.07] = [ 43.56,175.99] Ry 
 Optimized for a Real-space Cutoff    1.70 Angstroem

   l    n(q)    QCUT    max X(q) W(low)/X(q) W(high)/X(q)  e(spline) 
   2     12    12.472     5.149    0.23E-04    0.12E-05    0.19E-06
   2     12    12.472    48.417    0.26E-03    0.15E-03    0.35E-05
   0     13    12.472    27.113    0.15E-04    0.46E-05    0.14E-06
   0     13    12.472    33.957    0.20E-04    0.33E-04    0.12E-05
   1     12    12.472    13.771    0.11E-04    0.23E-05    0.34E-06
 WARNING: PSMAXN for non-local potential too small
          PSMAXN should be >   12.5490833729506       NTYP=           5
 Optimization of the real space projectors (new method)

 maximal supplied QI-value         = 24.76
 optimisation between [QCUT,QGAM] = [ 12.38, 25.00] = [ 42.90,175.06] Ry 
 Optimized for a Real-space Cutoff    1.13 Angstroem

   l    n(q)    QCUT    max X(q) W(low)/X(q) W(high)/X(q)  e(spline) 
   0      8    12.378    20.381    0.16E-03    0.54E-05    0.27E-06
   0      8    12.378    15.268    0.17E-03    0.61E-05    0.29E-06
   1      8    12.378     5.964    0.38E-03    0.23E-03    0.28E-06
   1      8    12.378     5.382    0.33E-03    0.20E-03    0.25E-06
  PAW_PBE Al 04Jan2001                  :
 energy of atom  1       EATOM=  -53.5387
 kinetic energy error for atom=    0.0002 (will be added to EATOM!!)
  PAW_PBE Nb_sv 25May2007               :
 energy of atom  2       EATOM=-1555.1913
 kinetic energy error for atom=    0.0037 (will be added to EATOM!!)
  PAW_PBE Ta 17Jan2003                  :
 energy of atom  3       EATOM= -130.6506
 kinetic energy error for atom=    0.0004 (will be added to EATOM!!)
  PAW_PBE Ti 08Apr2002                  :
 energy of atom  4       EATOM=  -94.7928
 kinetic energy error for atom=    0.0001 (will be added to EATOM!!)
 PAW_PBE Zr 08Apr2002                   :
 energy of atom  5       EATOM=  -77.8472
 kinetic energy error for atom=    0.0001 (will be added to EATOM!!)
  PAW_PBE O 08Apr2002                   :
 energy of atom  6       EATOM= -432.3788
 kinetic energy error for atom=    0.0168 (will be added to EATOM!!)
 
 
 POSCAR: Al Nb Ta Ti Zr                          
  positions in direct lattice
  velocities in cartesian coordinates
 exchange correlation table for  LEXCH =        8
   RHO(1)=    0.500       N(1)  =     2000
   RHO(2)=  100.500       N(2)  =     4000
 


--------------------------------------------------------------------------------------------------------


 ion  position               nearest neighbor table
   1  0.623  0.867  0.376-  34 2.83  25 2.88  24 2.88   9 2.88  13 2.90   4 2.91  61 2.93  15 3.16
                            41 3.35  17 3.40
   2  0.620  0.400  0.545-  31 2.75  33 2.77  14 2.81  23 2.84   7 2.89  26 2.90  10 2.91   3 2.97
                            62 2.99  17 3.10  42 3.43
   3  0.635  0.630  0.617-  75 1.89  32 2.65  23 2.67  14 2.72   8 2.72  27 2.76  33 2.89   2 2.97
                            26 2.99  12 3.11
   4  0.618  0.084  0.450-  31 2.80  24 2.86  34 2.87  13 2.88   1 2.91  25 2.92   7 2.92  62 3.01
                            10 3.08  28 3.16  46 3.24
   5  0.976  0.642  0.552-  30 2.80  27 2.87  56 2.91  42 2.93  52 3.01  63 3.02  47 3.11  54 3.13
                            59 3.22  23 3.24  57 3.28  58 3.30
   6  0.980  0.121  0.378-  29 2.80  28 2.80  53 2.91  41 2.96  51 3.05  55 3.05  60 3.08  57 3.37

   7  0.729  0.343  0.458-  28 2.77  29 2.83  31 2.85   2 2.89  17 2.89  11 2.90   4 2.92  63 3.07
                            62 3.08  42 3.09
   8  0.725  0.882  0.625-  71 2.06  27 2.65  30 2.68   3 2.72  18 2.74  12 2.77  32 2.87  64 3.09
                            62 3.30
   9  0.517  0.608  0.367-  35 2.84  15 2.85  17 2.87   1 2.88  11 2.89  61 2.95  43 3.10
  10  0.510  0.141  0.545-  16 2.79  36 2.88  18 2.90   2 2.91  12 2.98  31 3.00  46 3.03  62 3.04
                             4 3.08  44 3.09
  11  0.618  0.343  0.369-  24 2.75  34 2.83  31 2.87   9 2.89   7 2.90  61 2.96  43 3.27
  12  0.615  0.869  0.541-   8 2.77  32 2.81  13 2.82  33 2.82  23 2.84  25 2.84  62 2.97  10 2.98
                             3 3.11  44 3.29
  13  0.742  0.843  0.462-  12 2.82  23 2.85  17 2.87   4 2.88   1 2.90  30 2.91  28 2.94  63 2.98
                            41 3.05  57 3.27
  14  0.741  0.392  0.627-  74 2.07   3 2.72  27 2.81   2 2.81  42 2.87  64 2.93  58 3.03  18 3.06
                            62 3.44
  15  0.394  0.847  0.369-  22 2.68  19 2.76  25 2.83  34 2.84   9 2.85  39 2.98   1 3.16  46 3.43

  16  0.387  0.372  0.546-  21 2.67  10 2.79  26 2.80  20 2.83  33 2.88  37 2.90  40 2.91  31 3.01
                            45 3.47
  17  0.619  0.602  0.458-  23 2.79  33 2.80  25 2.81  31 2.85   9 2.87  13 2.87   7 2.89  61 2.95
                            35 3.03   2 3.10   1 3.40  63 3.44
  18  0.620  0.124  0.634-  72 2.00  74 2.04  71 2.12   8 2.74  10 2.90  62 2.98  32 2.99  36 3.02
                            26 3.06  14 3.06  64 3.27
  19  0.279  0.834  0.451-  15 2.76  35 2.94  46 2.96  39 2.97  44 2.98  25 2.99  60 3.07  51 3.08
                            47 3.12  21 3.12  56 3.27
  20  0.277  0.351  0.632-  69 1.99  70 2.03  67 2.17  16 2.83  36 2.96  48 3.00  45 3.05  26 3.05
                            40 3.10  52 3.15  59 3.33
  21  0.278  0.600  0.530-  16 2.67  35 2.75  45 2.86  47 2.87  37 2.90  56 3.01  52 3.02  33 3.03
                            44 3.05  19 3.12
  22  0.283  0.077  0.361-  15 2.68  46 2.97  43 2.97  34 2.99  51 3.02  55 3.10  60 3.10
  23  0.743  0.637  0.537-   3 2.67  30 2.75  17 2.79  63 2.81  27 2.82  12 2.84   2 2.84  13 2.85
                            42 3.03   5 3.24
  24  0.740  0.115  0.366-  29 2.73  11 2.75  28 2.85   4 2.86   1 2.88  41 3.00
  25  0.496  0.836  0.458-  35 2.78  17 2.81  15 2.83  12 2.84   1 2.88   4 2.92  33 2.97  44 2.98
                            19 2.99  46 2.99
  26  0.497  0.391  0.630-  70 1.97  74 2.04  75 2.27  16 2.80   2 2.90   3 2.99  20 3.05  18 3.06
                            36 3.09  45 3.19
  27  0.833  0.654  0.628-  68 2.04   8 2.65   3 2.76  58 2.77  14 2.81  23 2.82   5 2.87  30 3.00
                            54 3.07  42 3.53
  28  0.847  0.110  0.455-   7 2.77   6 2.80  24 2.85  57 2.90  62 2.91  13 2.94  53 2.98  29 3.15
                            50 3.16   4 3.16  41 3.36
  29  0.852  0.349  0.376-  24 2.73   6 2.80   7 2.83  53 2.94  61 2.98  49 3.07  28 3.15  63 3.25

  30  0.852  0.874  0.551-   8 2.68  23 2.75   5 2.80  13 2.91  57 2.95  62 2.98  27 3.00  50 3.02
                            54 3.03  64 3.54
  31  0.522  0.339  0.461-   2 2.75   4 2.80  17 2.85   7 2.85  35 2.86  11 2.87  46 2.95  10 3.00
                            16 3.01  43 3.11
  32  0.519  0.847  0.630-  72 2.01  65 2.08  75 2.14   3 2.65  12 2.81   8 2.87  36 2.89  45 2.97
                            18 2.99  44 3.07
  33  0.496  0.628  0.538-   2 2.77  35 2.77  17 2.80  12 2.82  16 2.88   3 2.89  44 2.95  25 2.97
                            21 3.03  45 3.13
  34  0.499  0.102  0.365-  11 2.83   1 2.83  15 2.84   4 2.87  43 2.91  46 2.98  22 2.99
  35  0.400  0.580  0.451-  21 2.75  33 2.77  25 2.78   9 2.84  31 2.86  37 2.88  39 2.93  19 2.94
                            17 3.03  43 3.08
  36  0.401  0.098  0.633-  72 1.97  70 2.03  67 2.07  65 2.14  10 2.88  32 2.89  20 2.96  18 3.02
                            38 3.06  26 3.09  40 3.16  44 3.19
  37  0.255  0.366  0.464-  35 2.88  21 2.90  16 2.90  47 3.02  60 3.04  43 3.05  55 3.08  46 3.08
                            52 3.16  40 3.18  39 3.39
  38  0.222  0.910  0.636-  73 1.91  65 2.05  67 2.11  56 2.82  59 3.03  36 3.06  45 3.08  48 3.09
                            54 3.10  44 3.28  40 3.29
  39  0.252  0.614  0.376-  35 2.93  19 2.97  15 2.98  47 3.07  43 3.07  51 3.07  55 3.08  37 3.39
                            49 3.53
  40  0.250  0.140  0.548-  67 2.36  16 2.91  44 3.02  60 3.09  20 3.10  52 3.10  36 3.16  46 3.18
                            37 3.18  48 3.21  56 3.29  38 3.29  50 3.52
  41  0.865  0.859  0.370-   6 2.96  24 3.00  61 3.05  13 3.05  57 3.06  49 3.12   1 3.35  28 3.36
                            51 3.49  63 3.53
  42  0.868  0.378  0.545-  14 2.87   5 2.93  23 3.03  62 3.04  58 3.08   7 3.09  50 3.09  63 3.15
                            53 3.15  52 3.42   2 3.43  64 3.51  27 3.53
  43  0.381  0.352  0.373-  34 2.91  22 2.97  37 3.05  39 3.07  35 3.08   9 3.10  31 3.11  55 3.26
                            11 3.27  46 3.29
  44  0.376  0.882  0.546-  65 2.34  33 2.95  25 2.98  19 2.98  40 3.02  21 3.05  32 3.07  10 3.09
                            45 3.12  36 3.19  46 3.28  38 3.28  12 3.29  56 3.30
  45  0.352  0.650  0.625-  69 2.12  75 2.17  65 2.21  21 2.86  32 2.97  20 3.05  38 3.08  59 3.12
                            44 3.12  33 3.13  26 3.19  16 3.47
  46  0.384  0.104  0.456-  31 2.95  19 2.96  22 2.97  34 2.98  25 2.99  10 3.03  37 3.08  40 3.18
                             4 3.24  60 3.27  44 3.28  43 3.29  15 3.43
  47  0.117  0.611  0.465-  21 2.87  37 3.02  39 3.07   5 3.11  19 3.12  56 3.13  53 3.14  49 3.15
                            57 3.17  52 3.19  63 3.42  51 3.52  55 3.80
  48  0.096  0.177  0.635-  66 2.09  67 2.21  50 2.99  20 3.00  38 3.09  52 3.10  58 3.10  40 3.21
                            54 3.25  64 3.32
  49  0.996  0.593  0.368-  63 3.05  29 3.07  41 3.12  47 3.15  51 3.16  55 3.23  53 3.44  39 3.53
                            61 3.65  57 3.82
  50  0.995  0.112  0.542-  48 2.99  30 3.02  42 3.09  57 3.10  28 3.16  53 3.23  52 3.23  60 3.28
                            56 3.29  64 3.34  54 3.44  40 3.52  62 3.65
  51  0.119  0.872  0.375-  60 3.00  22 3.02   6 3.05  39 3.07  19 3.08  57 3.16  49 3.16  41 3.49
                            47 3.52
  52  0.116  0.400  0.554-   5 3.01  21 3.02  40 3.10  48 3.10  20 3.15  37 3.16  47 3.19  59 3.21
                            50 3.23  53 3.28  58 3.37  42 3.42
  53  1.000  0.331  0.453-   6 2.91  29 2.94  28 2.98  60 3.06  63 3.08  55 3.09  47 3.14  42 3.15
                            50 3.23  52 3.28  49 3.44
  54  0.998  0.868  0.633-  73 2.15  68 2.21  59 2.95  30 3.03  27 3.07  56 3.10  38 3.10   5 3.13
                            64 3.25  48 3.25  50 3.44
  55  0.145  0.332  0.368-   6 3.05  37 3.08  39 3.08  53 3.09  22 3.10  49 3.23  60 3.24  43 3.26
                            47 3.80
  56  0.138  0.836  0.546-  38 2.82   5 2.91  21 3.01  54 3.10  47 3.13  57 3.16  19 3.27  40 3.29
                            50 3.29  44 3.30  59 3.31  60 3.60
  57  0.979  0.876  0.465-  28 2.90  30 2.95  41 3.06  50 3.10  63 3.11  60 3.13  51 3.16  56 3.16
                            47 3.17  13 3.27   5 3.28   6 3.37  49 3.82
  58  0.956  0.430  0.646-  66 2.07  68 2.18  27 2.77  59 3.01  14 3.03  42 3.08  64 3.10  48 3.10
                             5 3.30  52 3.37
  59  0.128  0.623  0.640-  69 2.13  73 2.18  68 2.30  54 2.95  58 3.01  38 3.03  45 3.12  52 3.21
                             5 3.22  56 3.31  20 3.33
  60  0.147  0.092  0.451-  51 3.00  37 3.04  53 3.06  19 3.07   6 3.08  40 3.09  22 3.10  57 3.13
                            55 3.24  46 3.27  50 3.28  56 3.60
  61  0.731  0.606  0.367-   1 2.93  17 2.95   9 2.95  11 2.96  29 2.98  41 3.05  63 3.17  49 3.65

  62  0.730  0.131  0.542-  28 2.91  12 2.97  18 2.98  30 2.98   2 2.99   4 3.01  42 3.04  10 3.04
                             7 3.08  64 3.25   8 3.30  14 3.44  50 3.65
  63  0.869  0.592  0.458-  23 2.81  13 2.98   5 3.02  49 3.05   7 3.07  53 3.08  57 3.11  42 3.15
                            61 3.17  29 3.25  47 3.42  17 3.44  41 3.53
  64  0.857  0.139  0.641-  71 2.07  66 2.14  14 2.93   8 3.09  58 3.10  62 3.25  54 3.25  18 3.27
                            48 3.32  50 3.34  42 3.51  30 3.54
  65  0.369  0.879  0.630-  38 2.05  32 2.08  36 2.14  45 2.21  44 2.34
  66  0.977  0.235  0.677-  58 2.07  48 2.09  64 2.14
  67  0.252  0.126  0.634-  36 2.07  38 2.11  20 2.17  48 2.21  40 2.36
  68  0.967  0.654  0.659-  27 2.04  58 2.18  54 2.21  59 2.30
  69  0.257  0.529  0.668-  20 1.99  45 2.12  59 2.13
  70  0.399  0.286  0.667-  26 1.97  36 2.03  20 2.03
  71  0.740  0.043  0.674-   8 2.06  64 2.07  18 2.12
  72  0.513  0.025  0.669-  36 1.97  18 2.00  32 2.01
  73  0.125  0.826  0.676-  38 1.91  54 2.15  59 2.18
  74  0.620  0.319  0.663-  18 2.04  26 2.04  14 2.07
  75  0.506  0.626  0.640-   3 1.89  32 2.14  45 2.17  26 2.27
 
  LATTYP: Found a simple orthorhombic cell.
 ALAT       =     9.5644817352
 B/A-ratio  =     1.4398428730
 C/A-ratio  =     2.8922184390
  
  Lattice vectors:
  
 A1 = (   0.0000000000,  -9.5644817352,   0.0000000000)
 A2 = ( -13.7713508606,   0.0000000000,   0.0000000000)
 A3 = (   0.0000000000,   0.0000000000, -27.6625704340)


Analysis of symmetry for initial positions (statically):
=====================================================================
 Subroutine PRICEL returns:
 Original cell was already a primitive cell.
 

 Routine SETGRP: Setting up the symmetry group for a 
 simple orthorhombic supercell.


 Subroutine GETGRP returns: Found  1 space group operations
 (whereof  1 operations were pure point group operations)
 out of a pool of  8 trial point group operations.


The static configuration has the point symmetry C_1 .


Analysis of symmetry for dynamics (positions and initial velocities):
=====================================================================
 Subroutine PRICEL returns:
 Original cell was already a primitive cell.
 

 Routine SETGRP: Setting up the symmetry group for a 
 simple orthorhombic supercell.


 Subroutine GETGRP returns: Found  1 space group operations
 (whereof  1 operations were pure point group operations)
 out of a pool of  8 trial point group operations.


The dynamic configuration has the point symmetry C_1 .


Analysis of constrained symmetry for selective dynamics:
=====================================================================
 Subroutine PRICEL returns:
 Original cell was already a primitive cell.
 

 Routine SETGRP: Setting up the symmetry group for a 
 simple orthorhombic supercell.


 Subroutine GETGRP returns: Found  1 space group operations
 (whereof  1 operations were pure point group operations)
 out of a pool of  8 trial point group operations.


The constrained configuration has the point symmetry C_1 .


 Subroutine INISYM returns: Found  1 space group operations
 (whereof  1 operations are pure point group operations),
 and found     1 'primitive' translations

 
 
 KPOINTS: k-points                                

Automatic generation of k-mesh.
Space group operators:
 irot       det(A)        alpha          n_x          n_y          n_z        tau_x        tau_y        tau_z
    1     1.000000     0.000000     1.000000     0.000000     0.000000     0.000000     0.000000     0.000000
 
 Subroutine IBZKPT returns following result:
 ===========================================
 
 Found      5 irreducible k-points:
 
 Following reciprocal coordinates:
            Coordinates               Weight
  0.000000  0.000000  0.000000      1.000000
  0.333333  0.000000  0.000000      2.000000
  0.000000  0.333333  0.000000      2.000000
  0.333333  0.333333  0.000000      2.000000
 -0.333333  0.333333  0.000000      2.000000
 
 Following cartesian coordinates:
            Coordinates               Weight
  0.000000  0.000000  0.000000      1.000000
  0.024205  0.000000  0.000000      2.000000
  0.000000  0.034851  0.000000      2.000000
  0.024205  0.034851  0.000000      2.000000
 -0.024205  0.034851  0.000000      2.000000
 


--------------------------------------------------------------------------------------------------------




 Dimension of arrays:
   k-points           NKPTS =      5   k-points in BZ     NKDIM =      5   number of bands    NBANDS=    248
   number of dos      NEDOS =    301   number of ions     NIONS =     75
   non local maximal  LDIM  =      6   non local SUM 2l+1 LMDIM =     18
   total plane-waves  NPLWV = 846720
   max r-space proj   IRMAX =   4874   max aug-charges    IRDMAX=  25433
   dimension x,y,z NGX =    84 NGY =   60 NGZ =  168
   dimension x,y,z NGXF=   168 NGYF=  120 NGZF=  336
   support grid    NGXF=   168 NGYF=  120 NGZF=  336
   ions per type =               6  10   4  18  26  11
 NGX,Y,Z   is equivalent  to a cutoff of  10.14, 10.43, 10.10 a.u.
 NGXF,Y,Z  is equivalent  to a cutoff of  20.28, 20.86, 20.19 a.u.


 I would recommend the setting:
   dimension x,y,z NGX =    83 NGY =   57 NGZ =  166
 SYSTEM =  (110) surface                           
 POSCAR =  Al Nb Ta Ti Zr                          

 Startparameter for this run:
   NWRITE =      2    write-flag & timer
   PREC   = normal    normal or accurate (medium, high low for compatibility)
   ISTART =      0    job   : 0-new  1-cont  2-samecut
   ICHARG =      2    charge: 1-file 2-atom 10-const
   ISPIN  =      1    spin polarized calculation?
   LNONCOLLINEAR =      F non collinear calculations
   LSORBIT =      F    spin-orbit coupling
   INIWAV =      1    electr: 0-lowe 1-rand  2-diag
   LASPH  =      F    aspherical Exc in radial PAW
   METAGGA=      F    non-selfconsistent MetaGGA calc.

 Electronic Relaxation 1
   ENCUT  =  600.0 eV  44.10 Ry    6.64 a.u.  27.50 19.10 55.25*2*pi/ulx,y,z
   ENINI  =  600.0     initial cutoff
   ENAUG  =  605.4 eV  augmentation charge cutoff
   NELM   =     60;   NELMIN=  2; NELMDL= -5     # of ELM steps 
   EDIFF  = 0.1E-03   stopping-criterion for ELM
   LREAL  =      T    real-space projection
   NLSPLINE    = F    spline interpolate recip. space projectors
   LCOMPAT=      F    compatible to vasp.4.4
   GGA_COMPAT  = T    GGA compatible to vasp.4.4-vasp.4.6
   LMAXPAW     = -100 max onsite density
   LMAXMIX     =    2 max onsite mixed and CHGCAR
   VOSKOWN=      0    Vosko Wilk Nusair interpolation
   ROPT   =   -0.00050  -0.00050  -0.00050  -0.00050
   ROPT   =   -0.00050  -0.00050
 Ionic relaxation
   EDIFFG = -.1E-01   stopping-criterion for IOM
   NSW    =      0    number of steps for IOM
   NBLOCK =      1;   KBLOCK =      1    inner block; outer block 
   IBRION =     -1    ionic relax: 0-MD 1-quasi-New 2-CG
   NFREE  =      0    steps in history (QN), initial steepest desc. (CG)
   ISIF   =      2    stress and relaxation
   IWAVPR =     10    prediction:  0-non 1-charg 2-wave 3-comb
   ISYM   =      2    0-nonsym 1-usesym 2-fastsym
   LCORR  =      T    Harris-Foulkes like correction to forces

   POTIM  = 0.1000    time-step for ionic-motion
   TEIN   =    0.0    initial temperature
   TEBEG  =    0.0;   TEEND  =   0.0 temperature during run
   SMASS  =  -3.00    Nose mass-parameter (am)
   estimated Nose-frequenzy (Omega)   =  0.10E-29 period in steps =****** mass=  -0.433E-26a.u.
   SCALEE = 1.0000    scale energy and forces
   NPACO  =    256;   APACO  = 16.0  distance and # of slots for P.C.
   PSTRESS=    0.0 pullay stress

  Mass of Ions in am
   POMASS =  26.98 92.91180.95 47.88 91.22 16.00
  Ionic Valenz
   ZVAL   =   3.00 13.00  5.00  4.00  4.00  6.00
  Atomic Wigner-Seitz radii
   RWIGS  =  -1.00 -1.00 -1.00 -1.00 -1.00 -1.00
  virtual crystal weights 
   VCA    =   1.00  1.00  1.00  1.00  1.00  1.00
   NELECT =     410.0000    total number of electrons
   NUPDOWN=      -1.0000    fix difference up-down

 DOS related values:
   EMIN   =  10.00;   EMAX   =-10.00  energy-range for DOS
   EFERMI =   0.00
   ISMEAR =     2;   SIGMA  =   0.10  broadening in eV -4-tet -1-fermi 0-gaus

 Electronic relaxation 2 (details)
   IALGO  =     68    algorithm
   LDIAG  =      T    sub-space diagonalisation (order eigenvalues)
   LSUBROT=      F    optimize rotation matrix (better conditioning)
   TURBO    =      0    0=normal 1=particle mesh
   IRESTART =      0    0=no restart 2=restart with 2 vectors
   NREBOOT  =      0    no. of reboots
   NMIN     =      0    reboot dimension
   EREF     =   0.00    reference energy to select bands
   IMIX   =      4    mixing-type and parameters
     AMIX     =   0.40;   BMIX     =  1.00
     AMIX_MAG =   1.60;   BMIX_MAG =  1.00
     AMIN     =   0.10
     WC   =   100.;   INIMIX=   1;  MIXPRE=   1;  MAXMIX= -45

 Intra band minimization:
   WEIMIN = 0.0000     energy-eigenvalue tresh-hold
   EBREAK =  0.10E-06  absolut break condition
   DEPER  =   0.30     relativ break condition  

   TIME   =   0.40     timestep for ELM

  volume/ion in A,a.u.               =      48.58       327.84
  Fermi-wavevector in a.u.,A,eV,Ry     =   0.790362  1.493567  8.499176  0.624672
  Thomas-Fermi vector in A             =   1.895688
 
 Write flags
   LWAVE  =      F    write WAVECAR
   LCHARG =      F    write CHGCAR
   LVTOT  =      F    write LOCPOT, total local potential
   LVHAR  =      T    write LOCPOT, Hartree potential only
   LELF   =      F    write electronic localiz. function (ELF)
   LORBIT =      0    0 simple, 1 ext, 2 COOP (PROOUT)


 Dipole corrections
   LMONO  =      F    monopole corrections only (constant potential shift)
   LDIPOL =      F    correct potential (dipole corrections)
   IDIPOL =      0    1-x, 2-y, 3-z, 4-all directions 
   EPSILON=  1.0000000 bulk dielectric constant

 Exchange correlation treatment:
   GGA     =    --    GGA type
   LEXCH   =     8    internal setting for exchange type
   VOSKOWN=      0    Vosko Wilk Nusair interpolation
   LHFCALC =     F    Hartree Fock is set to
   LHFONE  =     F    Hartree Fock one center treatment
   AEXX    =    0.0000 exact exchange contribution

 Linear response parameters
   LEPSILON=     F    determine dielectric tensor
   LRPA    =     F    only Hartree local field effects (RPA)
   LNABLA  =     F    use nabla operator in PAW spheres
   LVEL    =     F    velocity operator in full k-point grid
   LINTERFAST=   F  fast interpolation
   KINTER  =     0    interpolate to denser k-point grid
   CSHIFT  =0.1000    complex shift for real part using Kramers Kronig
   OMEGAMAX=  -1.0    maximum frequency
   DEG_THRESHOLD= 0.2000000E-02 threshold for treating states as degnerate
   RTIME   =    0.100 relaxation time in fs

 Orbital magnetization related:
   ORBITALMAG=     F  switch on orbital magnetization
   LCHIMAG   =     F  perturbation theory with respect to B field
   DQ        =  0.001000  dq finite difference perturbation B field



--------------------------------------------------------------------------------------------------------


 Static calculation
 charge density and potential will be updated during run
 non-spin polarized calculation
 RMM-DIIS sequential band-by-band and
  variant of blocked Davidson during initial phase
 perform sub-space diagonalisation
    before iterative eigenvector-optimisation
 modified Broyden-mixing scheme, WC =      100.0
 initial mixing is a Kerker type mixing with AMIX =  0.4000 and BMIX =      1.0000
 Hartree-type preconditioning will be used
 using additional bands           43
 real space projection scheme for non local part
 use partial core corrections
 calculate Harris-corrections to forces 
   (improved forces if not selfconsistent)
 use gradient corrections 
 use of overlap-Matrix (Vanderbilt PP)
 Methfessel and Paxton  Order N= 2 SIGMA  =   0.10


--------------------------------------------------------------------------------------------------------


  energy-cutoff  :      600.00
  volume of cell :     3643.60
      direct lattice vectors                 reciprocal lattice vectors
    13.771350861  0.000000000  0.000000000     0.072614518  0.000000000  0.000000000
     0.000000000  9.564481735  0.000000000     0.000000000  0.104553496  0.000000000
     0.000000000  0.000000000 27.662570434     0.000000000  0.000000000  0.036149931

  length of vectors
    13.771350861  9.564481735 27.662570434     0.072614518  0.104553496  0.036149931


 
 k-points in units of 2pi/SCALE and weight: k-points                                
   0.00000000  0.00000000  0.00000000       0.111
   0.02420484  0.00000000  0.00000000       0.222
   0.00000000  0.03485117  0.00000000       0.222
   0.02420484  0.03485117  0.00000000       0.222
  -0.02420484  0.03485117  0.00000000       0.222
 
 k-points in reciprocal lattice and weights: k-points                                
   0.00000000  0.00000000  0.00000000       0.111
   0.33333333  0.00000000  0.00000000       0.222
   0.00000000  0.33333333  0.00000000       0.222
   0.33333333  0.33333333  0.00000000       0.222
  -0.33333333  0.33333333  0.00000000       0.222
 
 position of ions in fractional coordinates (direct lattice) 
   0.62276447  0.86746430  0.37590333
   0.61981948  0.39993857  0.54518008
   0.63462668  0.62995420  0.61668699
   0.61839700  0.08363760  0.44965952
   0.97583951  0.64199915  0.55202476
   0.97963780  0.12056648  0.37767599
   0.72857308  0.34338307  0.45816820
   0.72514452  0.88207205  0.62450137
   0.51739597  0.60805875  0.36719826
   0.50986244  0.14072946  0.54494336
   0.61811078  0.34297293  0.36889183
   0.61451921  0.86870199  0.54105474
   0.74231148  0.84345710  0.46199300
   0.74088534  0.39194643  0.62708157
   0.39405298  0.84738672  0.36896032
   0.38651760  0.37240654  0.54578938
   0.61928761  0.60162497  0.45752798
   0.62004686  0.12396163  0.63419752
   0.27944195  0.83362269  0.45088327
   0.27737974  0.35069458  0.63229856
   0.27825206  0.59956796  0.52963487
   0.28324246  0.07725573  0.36149931
   0.74286898  0.63723507  0.53653357
   0.74002355  0.11549973  0.36646499
   0.49591756  0.83582580  0.45790018
   0.49740081  0.39058261  0.63039216
   0.83328658  0.65365541  0.62781186
   0.84724605  0.11017048  0.45460239
   0.85243583  0.34907103  0.37639265
   0.85232370  0.87416287  0.55135563
   0.52175105  0.33942658  0.46105252
   0.51874021  0.84735329  0.63037494
   0.49648525  0.62809943  0.53780700
   0.49943882  0.10200214  0.36464270
   0.40016663  0.58028412  0.45130253
   0.40125117  0.09820575  0.63282064
   0.25505811  0.36595738  0.46399110
   0.22166156  0.90966447  0.63566953
   0.25182599  0.61397660  0.37627308
   0.24981017  0.14008980  0.54845054
   0.86539888  0.85904646  0.37036829
   0.86808597  0.37821524  0.54482048
   0.38059813  0.35186696  0.37331264
   0.37572166  0.88163296  0.54585985
   0.35211795  0.65037584  0.62475253
   0.38408008  0.10357511  0.45579618
   0.11657381  0.61110574  0.46457054
   0.09615923  0.17726092  0.63471303
   0.99629861  0.59295863  0.36811234
   0.99517903  0.11174278  0.54177112
   0.11869311  0.87196302  0.37467704
   0.11566538  0.39988377  0.55376412
   0.99977952  0.33051389  0.45306987
   0.99846770  0.86805660  0.63315624
   0.14482272  0.33176249  0.36788561
   0.13836507  0.83629314  0.54618623
   0.97888047  0.87608504  0.46520830
   0.95611050  0.42960841  0.64558205
   0.12840175  0.62344308  0.64021113
   0.14721048  0.09173214  0.45072276
   0.73135245  0.60578495  0.36679988
   0.73036364  0.13061468  0.54174323
   0.86923259  0.59196168  0.45825814
   0.85696407  0.13883811  0.64065291
   0.36898181  0.87923747  0.63028913
   0.97701608  0.23527091  0.67667376
   0.25242130  0.12619013  0.63361872
   0.96737882  0.65392587  0.65927367
   0.25701351  0.52895129  0.66773670
   0.39931941  0.28561095  0.66712980
   0.73969905  0.04285211  0.67352084
   0.51341203  0.02460026  0.66913471
   0.12547672  0.82627451  0.67626749
   0.61991910  0.31922665  0.66345404
   0.50559082  0.62578697  0.63952797
 
 position of ions in cartesian coordinates  (Angst):
   8.57630799  8.29684649 10.39845223
   8.53575153  3.82520516 15.08108243
   8.73966667  6.02518549 17.05914740
   8.51616202  0.79995025 12.43873821
  13.43862834  6.14038913 15.27042385
  13.49093588  1.15315590 10.44748880
  10.03343557  3.28428114 12.67411000
   9.98621956  8.43656200 17.27531322
   7.12524148  5.81576681 10.15764776
   7.02149453  1.34600438 15.07453416
   8.51222037  3.28035836 10.20449636
   8.46275959  8.30868432 14.96696472
  10.22263181  8.06723005 12.77991378
  10.20299191  3.74876450 17.34668804
   5.42664188  8.10481479 10.20639088
   5.32286951  3.56187550 15.09793705
   8.52842696  5.75423100 12.65640004
   8.53888281  1.18562874 17.54353364
   3.84829318  7.97316903 12.47259035
   3.81989374  3.35421194 17.49100348
   3.83190678  5.73455683 14.65106200
   3.90063135  0.73891098 10.00000000
  10.23030931  6.09482321 14.84189757
  10.19112400  1.10469510 10.13736353
   6.82945470  7.99424061 12.66669595
   6.84988104  3.73572024 17.43826740
  11.47548186  6.25187521 17.36688975
  11.66772263  1.05372358 12.57547056
  11.73919286  3.33868345 10.41198829
  11.73764869  8.36091483 15.25191381
   7.18521672  3.24643930 12.75389771
   7.14375342  8.10449508 17.43779120
   6.83727259  6.00744557 14.87712400
   6.87794726  0.97559764 10.08695433
   5.51083508  5.55011685 12.48418803
   5.52577067  0.93928710 17.50544552
   3.51249472  3.50019267 12.83518635
   3.05257915  8.70046920 17.58425304
   3.46798404  5.87236796 10.40868071
   3.44022348  1.33988632 15.17155166
  11.91771166  8.21633417 10.24533883
  11.95471644  3.61743275 15.07113502
   5.24135036  3.36542512 10.32678719
   5.17419475  8.43236233 15.09988662
   4.84913989  6.22050784 17.28226088
   5.28930157  0.99064225 12.60849381
   1.60537885  5.84490969 12.85121538
   1.32424247  1.69540882 17.55779378
  13.72037774  5.67134198 10.18293350
  13.70495964  1.06876182 14.98678179
   1.63456451  8.33987442 10.36453009
   1.59286859  3.82468102 15.31853890
  13.76831459  3.16119411 12.53307716
  13.75024908  8.30251152 17.51472913
   1.99440444  3.17313630 10.17666150
   1.90547391  7.99871042 15.10891511
  13.48050634  8.37929939 12.86885734
  13.16693312  4.10898177 17.85845887
   1.76826557  5.96291000 17.70988560
   2.02728715  0.87737042 12.46815015
  10.07171117  5.79401911 10.14662739
  10.05809399  1.24926170 14.98601031
  11.97050705  5.66180669 12.67659812
  11.80155285  1.32791460 17.72210634
   5.08137798  8.40945075 17.43541756
  13.45483122  2.25024428 18.71853549
   3.47618232  1.20694317 17.52752252
  13.32211313  6.25446205 18.23720431
   3.53942322  5.05914497 18.47131362
   5.49916765  2.73172069 18.45452515
  10.18665520  0.40985822 18.63131764
   7.07037725  0.23528877 18.50998594
   1.72798398  7.90288742 18.70729716
   8.53712339  3.05323744 18.35284422
   6.96266861  5.98532802 17.69098747
 


--------------------------------------------------------------------------------------------------------


 k-point  1 :   0.0000 0.0000 0.0000  plane waves:  121663
 k-point  2 :   0.3333 0.0000 0.0000  plane waves:  121577
 k-point  3 :   0.0000 0.3333 0.0000  plane waves:  121622
 k-point  4 :   0.3333 0.3333 0.0000  plane waves:  121647
 k-point  5 :  -0.3333 0.3333 0.0000  plane waves:  121647

 maximum and minimum number of plane-waves per node :      5107     5041

 maximum number of plane-waves:    121663
 maximum index in each direction: 
   IXMAX=   27   IYMAX=   19   IZMAX=   55
   IXMIN=  -27   IYMIN=  -19   IZMIN=  -55

 WARNING: aliasing errors must be expected set NGX to 110 to avoid them
 WARNING: aliasing errors must be expected set NGY to  78 to avoid them
 WARNING: aliasing errors must be expected set NGZ to 222 to avoid them
 aliasing errors are usually negligible using standard VASP settings
 and one can safely disregard these warnings

 real space projection operators:
  total allocation   :      30256.90 KBytes
  max/ min on nodes  :       1462.80       1042.87


 parallel 3D FFT for wavefunctions:
    minimum data exchange during FFTs selected (reduces bandwidth)
 parallel 3D FFT for charge:
    minimum data exchange during FFTs selected (reduces bandwidth)


 total amount of memory used by VASP on root node    75961. kBytes
========================================================================

   base      :      30000. kBytes
   nonlr-proj:       7847. kBytes
   fftplans  :       3890. kBytes
   grid      :       8747. kBytes
   one-center:         62. kBytes
   wavefun   :      25415. kBytes
 
     INWAV:  cpu time    0.0000: real time    0.0000
 Broyden mixing: mesh for mixing (old mesh)
   NGX = 55   NGY = 39   NGZ =111
  (NGX  =168   NGY  =120   NGZ  =336)
  gives a total of 238095 points

 initial charge density was supplied:
 charge density of overlapping atoms calculated
 number of electron     410.0000000 magnetization 
 keeping initial charge density in first step


--------------------------------------------------------------------------------------------------------


 Maximum index for non-local projection operator          410
 Maximum index for augmentation-charges         1033 (set IRDMAX)


--------------------------------------------------------------------------------------------------------


 First call to EWALD:  gamma=   0.115
 Maximum number of real-space cells 3x 4x 2
 Maximum number of reciprocal cells 3x 2x 5

 FEWALD executed in parallel
    FEWALD:  cpu time    0.0024: real time    0.0024


----------------------------------------- Iteration    1(   1)  ---------------------------------------


    POTLOK:  cpu time    0.0591: real time    0.0602
    SETDIJ:  cpu time    0.0130: real time    0.0134
     EDDAV:  cpu time    5.8151: real time    5.8205
       DOS:  cpu time    0.0010: real time    0.0010
    --------------------------------------------
      LOOP:  cpu time    5.8913: real time    5.9016

 eigenvalue-minimisations  :  2608
 total energy-change (2. order) : 0.4963222E+04  (-0.1532739E+05)
 number of electron     410.0000000 magnetization 
 augmentation part      410.0000000 magnetization 

 Free energy of the ion-electron system (eV)
  ---------------------------------------------------
  alpha Z        PSCENC =       633.60512522
  Ewald energy   TEWEN  =     89083.67141846
  -Hartree energ DENC   =   -111454.85330338
  -exchange      EXHF   =         0.00000000
  -V(xc)+E(xc)   XCENC  =     -2782.99510158
  PAW double counting   =     23251.32536896   -19179.87696703
  entropy T*S    EENTRO =         0.00495772
  eigenvalues    EBANDS =       530.35646193
  atomic energy  EATOM  =     24881.98434549
  Solvation  Ediel_sol  =         0.00000000
  ---------------------------------------------------
  free energy    TOTEN  =      4963.22230578 eV

  energy without entropy =     4963.21734806  energy(sigma->0) =     4963.22106635


--------------------------------------------------------------------------------------------------------




----------------------------------------- Iteration    1(   2)  ---------------------------------------


     EDDAV:  cpu time    5.8122: real time    5.8124
       DOS:  cpu time    0.0009: real time    0.0009
    --------------------------------------------
      LOOP:  cpu time    5.8144: real time    5.8203

 eigenvalue-minimisations  :  2632
 total energy-change (2. order) :-0.4371353E+04  (-0.4240141E+04)
 number of electron     410.0000000 magnetization 
 augmentation part      410.0000000 magnetization 

 Free energy of the ion-electron system (eV)
  ---------------------------------------------------
  alpha Z        PSCENC =       633.60512522
  Ewald energy   TEWEN  =     89083.67141846
  -Hartree energ DENC   =   -111454.85330338
  -exchange      EXHF   =         0.00000000
  -V(xc)+E(xc)   XCENC  =     -2782.99510158
  PAW double counting   =     23251.32536896   -19179.87696703
  entropy T*S    EENTRO =        -0.00499688
  eigenvalues    EBANDS =     -3840.98703896
  atomic energy  EATOM  =     24881.98434549
  Solvation  Ediel_sol  =         0.00000000
  ---------------------------------------------------
  free energy    TOTEN  =       591.86885029 eV

  energy without entropy =      591.87384718  energy(sigma->0) =      591.87009952


--------------------------------------------------------------------------------------------------------




----------------------------------------- Iteration    1(   3)  ---------------------------------------


     EDDAV:  cpu time    9.0594: real time    9.0594
       DOS:  cpu time    0.0009: real time    0.0009
    --------------------------------------------
      LOOP:  cpu time    9.0613: real time    9.0672

 eigenvalue-minimisations  :  4584
 total energy-change (2. order) :-0.1121430E+04  (-0.1087921E+04)
 number of electron     410.0000000 magnetization 
 augmentation part      410.0000000 magnetization 

 Free energy of the ion-electron system (eV)
  ---------------------------------------------------
  alpha Z        PSCENC =       633.60512522
  Ewald energy   TEWEN  =     89083.67141846
  -Hartree energ DENC   =   -111454.85330338
  -exchange      EXHF   =         0.00000000
  -V(xc)+E(xc)   XCENC  =     -2782.99510158
  PAW double counting   =     23251.32536896   -19179.87696703
  entropy T*S    EENTRO =        -0.00087216
  eigenvalues    EBANDS =     -4962.42095294
  atomic energy  EATOM  =     24881.98434549
  Solvation  Ediel_sol  =         0.00000000
  ---------------------------------------------------
  free energy    TOTEN  =      -529.56093896 eV

  energy without entropy =     -529.56006680  energy(sigma->0) =     -529.56072092


--------------------------------------------------------------------------------------------------------




----------------------------------------- Iteration    1(   4)  ---------------------------------------


     EDDAV:  cpu time    7.7671: real time    7.7671
       DOS:  cpu time    0.0009: real time    0.0009
    --------------------------------------------
      LOOP:  cpu time    7.7690: real time    7.7757

 eigenvalue-minimisations  :  3808
 total energy-change (2. order) :-0.1620136E+03  (-0.1564942E+03)
 number of electron     410.0000000 magnetization 
 augmentation part      410.0000000 magnetization 

 Free energy of the ion-electron system (eV)
  ---------------------------------------------------
  alpha Z        PSCENC =       633.60512522
  Ewald energy   TEWEN  =     89083.67141846
  -Hartree energ DENC   =   -111454.85330338
  -exchange      EXHF   =         0.00000000
  -V(xc)+E(xc)   XCENC  =     -2782.99510158
  PAW double counting   =     23251.32536896   -19179.87696703
  entropy T*S    EENTRO =         0.00829430
  eigenvalues    EBANDS =     -5124.44370951
  atomic energy  EATOM  =     24881.98434549
  Solvation  Ediel_sol  =         0.00000000
  ---------------------------------------------------
  free energy    TOTEN  =      -691.57452907 eV

  energy without entropy =     -691.58282337  energy(sigma->0) =     -691.57660264


--------------------------------------------------------------------------------------------------------




----------------------------------------- Iteration    1(   5)  ---------------------------------------


     EDDAV:  cpu time    9.0979: real time    9.0980
       DOS:  cpu time    0.0009: real time    0.0009
    CHARGE:  cpu time    0.1788: real time    0.1791
    MIXING:  cpu time    0.0057: real time    0.0057
    --------------------------------------------
      LOOP:  cpu time    9.2845: real time    9.2908

 eigenvalue-minimisations  :  4592
 total energy-change (2. order) :-0.1695902E+02  (-0.1655323E+02)
 number of electron     409.9999947 magnetization 
 augmentation part       48.6964111 magnetization 

 Broyden mixing:
  rms(total) = 0.73280E+01    rms(broyden)= 0.73279E+01
  rms(prec ) = 0.78110E+01
  weight for this iteration     100.00

 Free energy of the ion-electron system (eV)
  ---------------------------------------------------
  alpha Z        PSCENC =       633.60512522
  Ewald energy   TEWEN  =     89083.67141846
  -Hartree energ DENC   =   -111454.85330338
  -exchange      EXHF   =         0.00000000
  -V(xc)+E(xc)   XCENC  =     -2782.99510158
  PAW double counting   =     23251.32536896   -19179.87696703
  entropy T*S    EENTRO =         0.00549525
  eigenvalues    EBANDS =     -5141.39992583
  atomic energy  EATOM  =     24881.98434549
  Solvation  Ediel_sol  =         0.00000000
  ---------------------------------------------------
  free energy    TOTEN  =      -708.53354445 eV

  energy without entropy =     -708.53903970  energy(sigma->0) =     -708.53491826


--------------------------------------------------------------------------------------------------------




----------------------------------------- Iteration    1(   6)  ---------------------------------------


    POTLOK:  cpu time    0.0498: real time    0.0498
    SETDIJ:  cpu time    0.0070: real time    0.0070
    EDDIAG:  cpu time    0.8944: real time    0.8948
  RMM-DIIS:  cpu time    4.6962: real time    4.6965
    ORTHCH:  cpu time    0.2662: real time    0.2665
       DOS:  cpu time    0.0009: real time    0.0009
    CHARGE:  cpu time    0.1768: real time    0.1768
    MIXING:  cpu time    0.0030: real time    0.0031
    --------------------------------------------
      LOOP:  cpu time    6.0959: real time    6.1026

 eigenvalue-minimisations  :  4202
 total energy-change (2. order) :-0.4294738E+02  (-0.1518957E+03)
 number of electron     409.9999960 magnetization 
 augmentation part       62.8603262 magnetization 

 Broyden mixing:
  rms(total) = 0.45830E+01    rms(broyden)= 0.45828E+01
  rms(prec ) = 0.61828E+01
  weight for this iteration     100.00

 eigenvalues of (default mixing * dielectric matrix)
  average eigenvalue GAMMA=   0.7743
  0.7743

 Free energy of the ion-electron system (eV)
  ---------------------------------------------------
  alpha Z        PSCENC =       633.60512522
  Ewald energy   TEWEN  =     89083.67141846
  -Hartree energ DENC   =   -112254.83314671
  -exchange      EXHF   =         0.00000000
  -V(xc)+E(xc)   XCENC  =     -2755.67381533
  PAW double counting   =     27553.50079002   -23487.06155364
  entropy T*S    EENTRO =         0.02214179
  eigenvalues    EBANDS =     -4406.69623105
  atomic energy  EATOM  =     24881.98434549
  Solvation  Ediel_sol  =         0.00000000
  ---------------------------------------------------
  free energy    TOTEN  =      -751.48092575 eV

  energy without entropy =     -751.50306754  energy(sigma->0) =     -751.48646120


--------------------------------------------------------------------------------------------------------




----------------------------------------- Iteration    1(   7)  ---------------------------------------


    POTLOK:  cpu time    0.0501: real time    0.0501
    SETDIJ:  cpu time    0.0067: real time    0.0067
    EDDIAG:  cpu time    0.8887: real time    0.8887
  RMM-DIIS:  cpu time    4.2172: real time    4.2172
    ORTHCH:  cpu time    0.2648: real time    0.2648
       DOS:  cpu time    0.0009: real time    0.0009
    CHARGE:  cpu time    0.1725: real time    0.1725
    MIXING:  cpu time    0.0018: real time    0.0018
    --------------------------------------------
      LOOP:  cpu time    5.6040: real time    5.6103

 eigenvalue-minimisations  :  3731
 total energy-change (2. order) : 0.2618279E+02  (-0.3880366E+02)
 number of electron     409.9999960 magnetization 
 augmentation part       59.9543384 magnetization 

 Broyden mixing:
  rms(total) = 0.42112E+01    rms(broyden)= 0.42112E+01
  rms(prec ) = 0.73717E+01
  weight for this iteration     100.00

 eigenvalues of (default mixing * dielectric matrix)
  average eigenvalue GAMMA=   0.6696
  1.0041  0.3352

 Free energy of the ion-electron system (eV)
  ---------------------------------------------------
  alpha Z        PSCENC =       633.60512522
  Ewald energy   TEWEN  =     89083.67141846
  -Hartree energ DENC   =   -111715.00041925
  -exchange      EXHF   =         0.00000000
  -V(xc)+E(xc)   XCENC  =     -2759.63649735
  PAW double counting   =     28180.63533838   -24125.57079683
  entropy T*S    EENTRO =        -0.01224462
  eigenvalues    EBANDS =     -4904.97440164
  atomic energy  EATOM  =     24881.98434549
  Solvation  Ediel_sol  =         0.00000000
  ---------------------------------------------------
  free energy    TOTEN  =      -725.29813215 eV

  energy without entropy =     -725.28588753  energy(sigma->0) =     -725.29507099


--------------------------------------------------------------------------------------------------------




----------------------------------------- Iteration    1(   8)  ---------------------------------------


    POTLOK:  cpu time    0.0500: real time    0.0500
    SETDIJ:  cpu time    0.0068: real time    0.0068
    EDDIAG:  cpu time    0.9022: real time    0.9022
  RMM-DIIS:  cpu time    4.7558: real time    4.7558
    ORTHCH:  cpu time    0.2669: real time    0.2669
       DOS:  cpu time    0.0009: real time    0.0009
    CHARGE:  cpu time    0.1757: real time    0.1758
    MIXING:  cpu time    0.0019: real time    0.0019
    --------------------------------------------
      LOOP:  cpu time    6.1616: real time    6.1681

 eigenvalue-minimisations  :  4181
 total energy-change (2. order) : 0.6281414E+02  (-0.2003654E+02)
 number of electron     409.9999961 magnetization 
 augmentation part       52.0255057 magnetization 

 Broyden mixing:
  rms(total) = 0.32365E+01    rms(broyden)= 0.32365E+01
  rms(prec ) = 0.50226E+01
  weight for this iteration     100.00

 eigenvalues of (default mixing * dielectric matrix)
  average eigenvalue GAMMA=   0.6506
  1.2986  0.4381  0.2150

 Free energy of the ion-electron system (eV)
  ---------------------------------------------------
  alpha Z        PSCENC =       633.60512522
  Ewald energy   TEWEN  =     89083.67141846
  -Hartree energ DENC   =   -111952.95387259
  -exchange      EXHF   =         0.00000000
  -V(xc)+E(xc)   XCENC  =     -2760.66981948
  PAW double counting   =     29018.79610013   -24967.73986992
  entropy T*S    EENTRO =        -0.01367687
  eigenvalues    EBANDS =     -4599.16374739
  atomic energy  EATOM  =     24881.98434549
  Solvation  Ediel_sol  =         0.00000000
  ---------------------------------------------------
  free energy    TOTEN  =      -662.48399696 eV

  energy without entropy =     -662.47032009  energy(sigma->0) =     -662.48057774


--------------------------------------------------------------------------------------------------------




----------------------------------------- Iteration    1(   9)  ---------------------------------------


    POTLOK:  cpu time    0.0502: real time    0.0502
    SETDIJ:  cpu time    0.0066: real time    0.0066
    EDDIAG:  cpu time    0.9115: real time    0.9115
  RMM-DIIS:  cpu time    4.2631: real time    4.2631
    ORTHCH:  cpu time    0.2666: real time    0.2666
       DOS:  cpu time    0.0010: real time    0.0010
    CHARGE:  cpu time    0.1750: real time    0.1750
    MIXING:  cpu time    0.0020: real time    0.0020
    --------------------------------------------
      LOOP:  cpu time    5.6773: real time    5.6834

 eigenvalue-minimisations  :  3721
 total energy-change (2. order) : 0.3571473E+02  (-0.6607934E+01)
 number of electron     409.9999956 magnetization 
 augmentation part       52.8099181 magnetization 

 Broyden mixing:
  rms(total) = 0.18789E+01    rms(broyden)= 0.18789E+01
  rms(prec ) = 0.21761E+01
  weight for this iteration     100.00

 eigenvalues of (default mixing * dielectric matrix)
  average eigenvalue GAMMA=   0.6971
  1.6146  0.4882  0.4882  0.1973

 Free energy of the ion-electron system (eV)
  ---------------------------------------------------
  alpha Z        PSCENC =       633.60512522
  Ewald energy   TEWEN  =     89083.67141846
  -Hartree energ DENC   =   -111960.17124527
  -exchange      EXHF   =         0.00000000
  -V(xc)+E(xc)   XCENC  =     -2757.86902957
  PAW double counting   =     29953.93066839   -25897.65542921
  entropy T*S    EENTRO =        -0.00033010
  eigenvalues    EBANDS =     -4564.26479165
  atomic energy  EATOM  =     24881.98434549
  Solvation  Ediel_sol  =         0.00000000
  ---------------------------------------------------
  free energy    TOTEN  =      -626.76926824 eV

  energy without entropy =     -626.76893814  energy(sigma->0) =     -626.76918572


--------------------------------------------------------------------------------------------------------




----------------------------------------- Iteration    1(  10)  ---------------------------------------


    POTLOK:  cpu time    0.0500: real time    0.0500
    SETDIJ:  cpu time    0.0066: real time    0.0066
    EDDIAG:  cpu time    0.9076: real time    0.9076
  RMM-DIIS:  cpu time    4.4491: real time    4.4492
    ORTHCH:  cpu time    0.2660: real time    0.2660
       DOS:  cpu time    0.0009: real time    0.0010
    CHARGE:  cpu time    0.1725: real time    0.1725
    MIXING:  cpu time    0.0022: real time    0.0022
    --------------------------------------------
      LOOP:  cpu time    5.8564: real time    5.8630

 eigenvalue-minimisations  :  3931
 total energy-change (2. order) : 0.5916066E+01  (-0.4091632E+01)
 number of electron     409.9999959 magnetization 
 augmentation part       56.3105994 magnetization 

 Broyden mixing:
  rms(total) = 0.11089E+01    rms(broyden)= 0.11089E+01
  rms(prec ) = 0.14672E+01
  weight for this iteration     100.00

 eigenvalues of (default mixing * dielectric matrix)
  average eigenvalue GAMMA=   0.7128
  1.8547  0.5909  0.5909  0.3394  0.1878

 Free energy of the ion-electron system (eV)
  ---------------------------------------------------
  alpha Z        PSCENC =       633.60512522
  Ewald energy   TEWEN  =     89083.67141846
  -Hartree energ DENC   =   -112020.11076248
  -exchange      EXHF   =         0.00000000
  -V(xc)+E(xc)   XCENC  =     -2753.26781384
  PAW double counting   =     30727.37706422   -26664.71586018
  entropy T*S    EENTRO =        -0.00231603
  eigenvalues    EBANDS =     -4509.39440316
  atomic energy  EATOM  =     24881.98434549
  Solvation  Ediel_sol  =         0.00000000
  ---------------------------------------------------
  free energy    TOTEN  =      -620.85320230 eV

  energy without entropy =     -620.85088627  energy(sigma->0) =     -620.85262329


--------------------------------------------------------------------------------------------------------




----------------------------------------- Iteration    1(  11)  ---------------------------------------


    POTLOK:  cpu time    0.0500: real time    0.0500
    SETDIJ:  cpu time    0.0068: real time    0.0068
    EDDIAG:  cpu time    0.9092: real time    0.9092
  RMM-DIIS:  cpu time    4.5956: real time    4.5957
    ORTHCH:  cpu time    0.2670: real time    0.2670
       DOS:  cpu time    0.0010: real time    0.0010
    CHARGE:  cpu time    0.1743: real time    0.1743
    MIXING:  cpu time    0.0022: real time    0.0022
    --------------------------------------------
      LOOP:  cpu time    6.0076: real time    6.0140

 eigenvalue-minimisations  :  4097
[...]
  E(xc)   -1780.00464 -1780.29632 -1769.66286    -0.54171    -1.00211     0.80261
  Local  ************************203714.89537  1108.85862  -183.82684  -174.34567
  n-local  -242.19644  -244.75518  -281.67636    10.95218     2.76988    -2.19622
  augment   508.47158   509.12675   506.71239    -1.64392    -0.01773     0.18282
  Kinetic  5480.24197  5475.97710  5541.26970   -13.38009     1.06917     3.18165
  Fock        0.00000     0.00000     0.00000     0.00000     0.00000     0.00000
  -------------------------------------------------------------------------------------
  Total     -27.35808   -20.77768   -16.27016    -2.71438     5.65649    -0.82704
  in kB     -12.03000    -9.13644    -7.15438    -1.19358     2.48729    -0.36367
  external pressure =       -9.44 kB  Pullay stress =        0.00 kB


 VOLUME and BASIS-vectors are now :
 -----------------------------------------------------------------------------
  energy-cutoff  :      600.00
  volume of cell :     3643.60
      direct lattice vectors                 reciprocal lattice vectors
    13.771350861  0.000000000  0.000000000     0.072614518  0.000000000  0.000000000
     0.000000000  9.564481735  0.000000000     0.000000000  0.104553496  0.000000000
     0.000000000  0.000000000 27.662570434     0.000000000  0.000000000  0.036149931

  length of vectors
    13.771350861  9.564481735 27.662570434     0.072614518  0.104553496  0.036149931


 FORCES acting on ions
    electron-ion (+dipol)            ewald-force                    non-local-force                 convergence-correction
 -----------------------------------------------------------------------------------------------
   -.484E+02 -.350E+02 0.424E+03   0.482E+02 0.347E+02 -.423E+03   0.984E-01 0.100E+00 -.786E+00   -.437E-03 -.363E-03 -.128E-03
   -.292E+02 -.300E+02 -.373E+02   0.290E+02 0.302E+02 0.364E+02   0.210E+00 -.191E+00 0.850E+00   -.192E-03 0.851E-03 -.204E-02
   -.373E+02 0.232E+02 -.277E+03   0.408E+02 -.212E+02 0.275E+03   -.353E+01 -.196E+01 0.143E+01   0.398E-03 0.931E-03 -.174E-02
   0.467E+00 0.700E+01 0.249E+03   -.307E+00 -.679E+01 -.249E+03   -.223E+00 -.265E+00 -.119E+00   -.219E-03 -.365E-03 -.994E-03
   -.582E+02 0.844E+01 -.246E+02   0.579E+02 -.811E+01 0.243E+02   0.325E+00 -.334E+00 0.275E+00   0.443E-03 0.242E-03 -.118E-02
   -.450E+02 0.480E+01 0.368E+03   0.443E+02 -.419E+01 -.366E+03   0.680E+00 -.100E+01 -.226E+01   0.235E-03 0.534E-04 -.116E-03
   -.387E+03 0.684E+01 0.718E+03   0.386E+03 -.607E+01 -.720E+03   0.213E+00 -.385E+00 0.937E+00   0.134E-02 0.429E-02 -.770E-02
   -.350E+03 0.198E+03 -.131E+04   0.348E+03 -.197E+03 0.131E+04   0.175E+01 -.159E+01 0.291E+01   -.261E-02 -.457E-03 -.538E-02
   0.951E+02 -.884E+01 0.182E+04   -.948E+02 0.773E+01 -.182E+04   -.512E+00 0.593E+00 -.432E+01   -.371E-02 0.170E-02 0.191E-02
   0.126E+03 0.119E+02 -.380E+02   -.126E+03 -.117E+02 0.392E+02   0.575E+00 -.195E+00 -.116E+01   -.415E-02 -.258E-02 -.365E-02
   -.588E+02 0.141E+03 0.189E+04   0.596E+02 -.141E+03 -.189E+04   -.527E+00 -.404E+00 -.270E+01   0.116E-02 0.129E-02 -.758E-03
   0.413E+02 0.909E+02 -.532E+02   -.408E+02 -.916E+02 0.537E+02   -.455E+00 0.688E+00 -.555E+00   -.572E-03 -.351E-02 -.516E-02
   -.408E+03 -.213E+02 0.974E+03   0.409E+03 0.200E+02 -.973E+03   -.773E+00 0.164E+01 -.181E+01   -.353E-02 -.432E-02 -.380E-02
   -.378E+03 -.131E+03 -.119E+04   0.379E+03 0.130E+03 0.119E+04   -.982E+00 0.478E+00 0.213E+01   0.955E-03 0.100E-02 -.322E-02
   0.293E+03 -.119E+03 0.173E+04   -.293E+03 0.119E+03 -.173E+04   0.231E+00 -.344E+00 -.425E+01   -.158E-02 0.224E-03 -.118E-02
   0.369E+03 -.132E+03 -.529E+02   -.369E+03 0.132E+03 0.534E+02   0.258E+00 -.544E-01 -.447E+00   -.462E-02 0.206E-03 -.501E-02
   -.201E+02 0.863E+00 0.290E+03   0.195E+02 -.834E+00 -.290E+03   0.531E+00 -.239E-01 -.272E+00   -.158E-03 0.434E-03 -.107E-02
   -.358E+02 -.296E+02 -.506E+03   0.355E+02 0.293E+02 0.505E+03   0.309E+00 0.263E+00 0.124E+01   -.242E-03 -.157E-02 -.109E-02
   0.177E+03 -.964E+01 0.278E+03   -.176E+03 0.950E+01 -.278E+03   -.146E+01 0.692E+00 0.467E+00   0.137E-02 -.192E-03 -.212E-02
   0.186E+03 -.304E+02 -.461E+03   -.185E+03 0.317E+02 0.459E+03   -.122E+01 -.131E+01 0.260E+01   -.272E-03 -.126E-03 -.231E-02
   0.140E+03 -.473E+02 0.254E+02   -.140E+03 0.475E+02 -.256E+02   -.435E+00 -.196E+00 0.251E+00   0.128E-02 -.330E-03 -.176E-02
   0.117E+03 -.556E+02 0.527E+03   -.116E+03 0.557E+02 -.524E+03   -.884E+00 -.263E+00 -.266E+01   0.102E-02 -.578E-03 0.306E-03
   -.123E+03 0.651E+02 -.318E+02   0.123E+03 -.644E+02 0.315E+02   0.816E-01 -.668E+00 0.260E+00   -.799E-03 0.542E-03 -.227E-02
   -.100E+03 0.602E+02 0.578E+03   0.998E+02 -.596E+02 -.575E+03   0.436E+00 -.561E+00 -.287E+01   -.268E-03 0.155E-03 -.166E-03
   0.709E+02 -.195E+02 0.251E+03   -.718E+02 0.189E+02 -.251E+03   0.882E+00 0.845E+00 -.516E+00   -.694E-03 -.107E-02 -.125E-02
   0.175E+02 -.689E+02 -.405E+03   -.179E+02 0.671E+02 0.404E+03   0.429E+00 0.187E+01 0.149E+01   -.170E-02 -.203E-03 -.164E-02
   -.746E+02 0.140E+02 -.375E+03   0.744E+02 -.148E+02 0.373E+03   0.157E+00 0.792E+00 0.260E+01   -.271E-03 0.818E-03 -.160E-02
   -.161E+03 0.764E+01 0.267E+03   0.160E+03 -.751E+01 -.267E+03   0.325E+00 -.316E+00 -.102E+00   0.386E-03 0.709E-03 -.187E-02
   -.150E+03 -.503E+01 0.538E+03   0.149E+03 0.495E+01 -.535E+03   0.661E+00 -.651E-02 -.257E+01   -.220E-03 0.526E-03 0.393E-03
   -.195E+03 -.114E+02 -.536E+02   0.194E+03 0.113E+02 0.539E+02   0.113E+01 0.135E+00 -.293E+00   -.243E-03 -.104E-02 -.115E-02
   0.800E+02 0.705E+01 0.258E+03   -.803E+02 -.675E+01 -.258E+03   0.105E-01 -.610E-01 -.302E+00   -.917E-03 0.116E-02 -.146E-02
   0.311E+02 0.654E+02 -.441E+03   -.297E+02 -.638E+02 0.439E+03   -.143E+01 -.163E+01 0.232E+01   0.224E-03 0.242E-03 -.200E-02
   0.619E+02 0.633E+01 -.185E+02   -.625E+02 -.574E+01 0.169E+02   0.541E+00 -.583E+00 0.160E+01   -.682E-03 0.458E-03 -.297E-02
   0.336E+02 -.102E+01 0.559E+03   -.342E+02 0.993E+00 -.556E+03   0.607E+00 0.992E-02 -.245E+01   -.107E-02 -.632E-03 -.287E-03
   0.127E+03 0.119E+02 0.250E+03   -.126E+03 -.122E+02 -.250E+03   -.955E+00 0.594E+00 -.405E+00   -.119E-03 0.815E-04 -.986E-03
   0.883E+02 0.177E+02 -.401E+03   -.865E+02 -.165E+02 0.400E+03   -.177E+01 -.117E+01 0.155E+01   -.842E-03 0.387E-03 -.165E-02
   0.130E+03 0.104E+02 0.272E+03   -.130E+03 -.102E+02 -.272E+03   0.104E+00 -.431E+00 -.618E+00   0.103E-02 0.904E-04 -.130E-02
   0.825E+02 0.146E+02 -.354E+03   -.838E+02 -.158E+02 0.352E+03   0.126E+01 0.120E+01 0.225E+01   -.510E-03 -.351E-03 -.192E-02
   0.127E+03 0.393E+02 0.490E+03   -.127E+03 -.391E+02 -.487E+03   0.173E+00 -.399E+00 -.267E+01   0.142E-02 0.265E-03 0.339E-03
   0.151E+03 0.350E+02 0.167E+02   -.151E+03 -.340E+02 -.169E+02   -.180E+00 -.940E+00 0.235E+00   0.347E-03 0.240E-03 -.144E-02
   -.982E+02 -.164E+01 0.544E+03   0.985E+02 0.161E+01 -.541E+03   -.446E+00 0.380E-01 -.306E+01   -.397E-04 -.571E-03 -.296E-03
   -.150E+03 0.232E+01 -.279E+02   0.149E+03 -.234E+01 0.283E+02   0.387E+00 0.150E-01 -.396E+00   0.458E-03 0.788E-03 -.256E-02
   0.129E+03 0.294E+02 0.516E+03   -.129E+03 -.297E+02 -.513E+03   -.251E+00 0.375E+00 -.253E+01   -.439E-03 0.309E-03 0.328E-03
   0.143E+03 0.293E+02 0.266E+01   -.142E+03 -.295E+02 -.323E+01   -.714E+00 0.172E+00 0.571E+00   -.255E-03 -.173E-03 -.181E-02
   0.910E+02 -.762E+01 -.345E+03   -.912E+02 0.668E+01 0.343E+03   0.243E+00 0.935E+00 0.212E+01   -.979E-03 -.111E-03 -.169E-02
   0.120E+03 -.629E+01 0.288E+03   -.121E+03 0.596E+01 -.288E+03   0.591E+00 0.414E+00 -.158E+00   -.830E-03 -.113E-03 -.126E-02
   0.434E+02 0.220E+01 0.226E+03   -.433E+02 -.213E+01 -.227E+03   -.384E+00 -.405E-01 -.990E-01   0.256E-03 -.285E-03 -.128E-02
   0.332E+02 0.410E+01 -.340E+03   -.346E+02 -.313E+01 0.338E+03   0.141E+01 -.974E+00 0.215E+01   0.114E-02 -.192E-03 -.127E-02
   -.400E+02 -.288E+00 0.498E+03   0.402E+02 0.620E+00 -.495E+03   -.241E-01 -.271E+00 -.283E+01   -.332E-03 0.807E-04 0.644E-04
   -.569E+02 -.375E+01 -.158E+02   0.569E+02 0.366E+01 0.159E+02   -.137E-01 0.920E-01 -.102E+00   0.140E-02 -.121E-03 -.155E-02
   0.532E+02 -.326E+01 0.480E+03   -.531E+02 0.263E+01 -.477E+03   -.265E-01 0.209E+00 -.314E+01   0.481E-03 0.712E-04 -.241E-03
   0.594E+02 -.481E+01 -.439E+02   -.593E+02 0.412E+01 0.445E+02   -.174E+00 0.695E+00 -.529E+00   0.884E-03 -.327E-03 -.147E-02
   -.681E+02 -.295E+01 0.254E+03   0.682E+02 0.306E+01 -.255E+03   0.126E+00 0.206E+00 0.475E-01   0.257E-03 0.113E-03 -.127E-02
   -.415E+01 -.560E+02 -.325E+03   0.541E+01 0.550E+02 0.323E+03   -.126E+01 0.105E+01 0.190E+01   0.112E-02 -.111E-03 -.131E-02
   0.418E+02 0.139E+01 0.495E+03   -.411E+02 -.123E+01 -.491E+03   -.819E+00 -.324E+00 -.324E+01   0.466E-03 -.124E-03 0.493E-03
   0.496E+02 -.183E+01 -.112E+02   -.491E+02 0.205E+01 0.117E+02   -.468E+00 -.225E+00 -.507E+00   0.393E-03 0.389E-03 -.859E-03
   -.933E+02 0.436E+00 0.228E+03   0.929E+02 -.501E+00 -.229E+03   0.583E+00 0.160E+00 0.402E-01   0.528E-03 -.176E-03 -.137E-02
   -.666E+02 -.453E+01 -.391E+03   0.657E+02 0.339E+01 0.389E+03   0.935E+00 0.115E+01 0.233E+01   0.843E-03 0.206E-03 -.862E-03
   0.345E+02 0.342E+02 -.338E+03   -.334E+02 -.329E+02 0.337E+03   -.105E+01 -.132E+01 0.149E+01   0.682E-03 0.432E-03 -.125E-02
   0.551E+02 -.516E+01 0.262E+03   -.543E+02 0.506E+01 -.262E+03   -.717E+00 0.245E+00 0.132E-01   0.633E-03 0.393E-03 -.878E-03
   -.142E+03 -.432E+02 0.576E+03   0.141E+03 0.425E+02 -.572E+03   0.831E+00 0.614E-01 -.325E+01   0.640E-04 -.785E-04 0.326E-03
   -.149E+03 -.367E+02 -.245E+02   0.148E+03 0.363E+02 0.253E+02   0.177E+00 0.405E+00 -.862E+00   -.761E-03 -.536E-03 -.166E-02
   -.159E+03 0.465E+01 0.256E+03   0.158E+03 -.480E+01 -.257E+03   0.918E+00 0.416E+00 0.142E+00   -.593E-03 -.441E-03 -.139E-02
   -.136E+03 0.461E+01 -.375E+03   0.136E+03 -.442E+01 0.374E+03   0.392E+00 -.193E+00 0.153E+01   0.232E-03 -.648E-03 -.574E-03
   0.149E+03 0.714E+02 -.602E+03   -.149E+03 -.704E+02 0.607E+03   -.256E-01 -.924E+00 -.506E+01   -.248E-02 -.825E-03 -.332E-02
   -.697E+02 0.121E+02 -.807E+03   0.702E+02 -.149E+02 0.822E+03   -.503E+00 0.282E+01 -.150E+02   0.159E-02 -.281E-03 -.262E-03
   0.193E+03 0.196E+02 -.592E+03   -.194E+03 -.226E+02 0.597E+03   0.113E+01 0.292E+01 -.495E+01   -.428E-03 0.222E-02 -.272E-02
   -.415E+02 0.108E+02 -.727E+03   0.416E+02 -.847E+01 0.737E+03   -.390E-01 -.229E+01 -.963E+01   0.158E-02 0.141E-02 -.144E-02
   0.102E+03 -.335E+02 -.819E+03   -.102E+03 0.363E+02 0.838E+03   0.142E+00 -.278E+01 -.183E+02   0.270E-03 -.136E-02 -.279E-02
   0.769E+02 -.390E+02 -.927E+03   -.721E+02 0.375E+02 0.946E+03   -.482E+01 0.146E+01 -.189E+02   -.492E-02 -.656E-03 -.269E-03
   -.153E+03 -.529E+02 -.100E+04   0.154E+03 0.519E+02 0.102E+04   -.131E+01 0.997E+00 -.199E+02   -.163E-02 -.164E-02 -.137E-02
   0.504E+02 0.449E+02 -.973E+03   -.535E+02 -.470E+02 0.993E+03   0.313E+01 0.211E+01 -.200E+02   0.109E-02 0.163E-02 0.135E-03
   0.369E+02 -.218E+02 -.823E+03   -.381E+02 0.230E+02 0.841E+03   0.112E+01 -.118E+01 -.177E+02   -.190E-03 -.199E-03 -.148E-02
   0.397E+02 -.496E+02 -.945E+03   -.414E+02 0.550E+02 0.962E+03   0.172E+01 -.534E+01 -.171E+02   0.191E-02 -.245E-02 0.879E-03
   0.392E+02 0.119E+02 -.739E+03   -.421E+02 -.149E+02 0.748E+03   0.292E+01 0.294E+01 -.905E+01   -.135E-02 0.125E-02 -.231E-02
 -----------------------------------------------------------------------------------------------
   -.342E+00 0.138E+01 0.173E+03   0.739E-12 0.128E-12 0.591E-11   0.366E+00 -.135E+01 -.173E+03   -.180E-01 -.289E-02 -.110E+00
 
 
 POSITION                                       TOTAL-FORCE (eV/Angst)
 -----------------------------------------------------------------------------------
      8.57631      8.29685     10.39845        -0.082239     -0.165045      0.027323
      8.53575      3.82521     15.08108         0.002295     -0.000753     -0.000114
      8.73967      6.02519     17.05915         0.001847      0.000868      0.000809
      8.51616      0.79995     12.43874        -0.063139     -0.051171      0.070285
     13.43863      6.14039     15.27042         0.003405      0.001925     -0.001061
     13.49094      1.15316     10.44749        -0.032766     -0.392027     -0.056737
     10.03344      3.28428     12.67411        -0.064095      0.394818     -0.585906
      9.98622      8.43656     17.27531         0.000386     -0.000192      0.003232
      7.12524      5.81577     10.15765        -0.159589     -0.511495      0.968010
      7.02149      1.34600     15.07453         0.001221     -0.002436      0.002283
      8.51222      3.28036     10.20450         0.278171      0.060669      0.834055
      8.46276      8.30868     14.96696         0.001813     -0.000691      0.002210
     10.22263      8.06723     12.77991         0.225080      0.366901     -0.353992
     10.20299      3.74876     17.34669         0.000113     -0.002481      0.004166
      5.42664      8.10481     10.20639         0.303182      0.058106      0.871575
      5.32287      3.56188     15.09794         0.001159     -0.001192      0.002510
      8.52843      5.75423     12.65640        -0.065762      0.005236     -0.347795
      8.53888      1.18563     17.54353         0.001489      0.001775      0.001078
      3.84829      7.97317     12.47259        -0.512215      0.554222     -0.469693
      3.81989      3.35421     17.49100         0.006791      0.000301      0.003786
      3.83191      5.73456     14.65106         0.000756     -0.001504      0.002006
      3.90063      0.73891     10.00000         0.438177     -0.201309      0.375510
     10.23031      6.09482     14.84190         0.001782      0.000503     -0.000255
     10.19112      1.10470     10.13736        -0.201561     -0.016927      0.300947
      6.82945      7.99424     12.66670         0.037929      0.223883     -0.377199
      6.84988      3.73572     17.43827         0.001886     -0.000023      0.000279
     11.47548      6.25188     17.36689        -0.000807     -0.003490     -0.003436
     11.66772      1.05372     12.57547        -0.272941     -0.187354     -0.467508
     11.73919      3.33868     10.41199        -0.291604     -0.083885      0.593400
     11.73765      8.36091     15.25191         0.002591      0.002641      0.001003
      7.18522      3.24644     12.75390        -0.244401      0.238151     -0.434703
      7.14375      8.10450     17.43779         0.006398     -0.005172     -0.003572
      6.83727      6.00745     14.87712         0.002180      0.002253      0.001136
      6.87795      0.97560     10.08695        -0.057006     -0.019725      0.234139
      5.51084      5.55012     12.48419         0.006232      0.272928     -0.642319
      5.52577      0.93929     17.50545        -0.000356      0.001108     -0.001281
      3.51249      3.50019     12.83519         0.004721     -0.245822     -0.160469
      3.05258      8.70047     17.58425         0.003391      0.001015     -0.000553
      3.46798      5.87237     10.40868         0.077475     -0.217076     -0.096739
      3.44022      1.33989     15.17155         0.000890     -0.000741      0.002367
     11.91771      8.21633     10.24534        -0.194436      0.003243      0.721829
     11.95472      3.61743     15.07114         0.003967     -0.000074      0.002103
      5.24135      3.36543     10.32679         0.129451      0.083346      0.124068
      5.17419      8.43236     15.09989        -0.001657     -0.001319      0.001141
      4.84914      6.22051     17.28226         0.002088     -0.002837     -0.001165
      5.28930      0.99064     12.60849         0.214940      0.083058     -0.307814
      1.60538      5.84491     12.85122        -0.239888      0.024438     -0.625430
      1.32424      1.69541     17.55779         0.000928     -0.000672     -0.002380
     13.72038      5.67134     10.18293         0.180866      0.061014      0.592354
     13.70496      1.06876     14.98678        -0.000061     -0.000222      0.003732
      1.63456      8.33987     10.36453         0.004121     -0.421731      0.115124
      1.59287      3.82468     15.31854        -0.000280      0.000302      0.000803
     13.76831      3.16119     12.53308         0.223216      0.312152     -0.264986
     13.75025      8.30251     17.51473         0.003173      0.000678     -0.004042
      1.99440      3.17314     10.17666        -0.119269     -0.159646      0.624491
      1.90547      7.99871     15.10892         0.001247      0.000139      0.001179
     13.48051      8.37930     12.86886         0.238163      0.095213     -0.319142
     13.16693      4.10898     17.85846        -0.000990      0.002886      0.001158
      1.76827      5.96291     17.70989         0.004368     -0.004073     -0.001326
      2.02729      0.87737     12.46815         0.006041      0.152899     -0.410988
     10.07171      5.79402     10.14663         0.156933     -0.563424      0.166758
     10.05809      1.24926     14.98601        -0.001686      0.001566      0.000714
     11.97051      5.66181     12.67660         0.006031      0.267076     -0.732174
     11.80155      1.32791     17.72211        -0.001507     -0.002601      0.002307
      5.08138      8.40945     17.43542         0.001639     -0.000311     -0.002390
     13.45483      2.25024     18.71854         0.002098     -0.000456      0.004976
      3.47618      1.20694     17.52752         0.002582     -0.001251      0.004238
     13.32211      6.25446     18.23720         0.003911      0.000552      0.004728
      3.53942      5.05914     18.47131         0.001206     -0.001708     -0.002388
      5.49917      2.73172     18.45453         0.001529     -0.001111      0.001477
     10.18666      0.40986     18.63132         0.001560      0.000000     -0.003812
      7.07038      0.23529     18.50999        -0.000724     -0.000233      0.004189
      1.72798      7.90289     18.70730         0.002385     -0.001102      0.001557
      8.53712      3.05324     18.35284         0.004047     -0.001848     -0.001217
      6.96267      5.98533     17.69099         0.001129     -0.000736      0.001551
 -----------------------------------------------------------------------------------
    total drift:                                0.006648      0.024743      0.042546


--------------------------------------------------------------------------------------------------------



  FREE ENERGIE OF THE ION-ELECTRON SYSTEM (eV)
  ---------------------------------------------------
  free  energy   TOTEN  =      -617.48101159 eV

  energy  without entropy=     -617.46995022  energy(sigma->0) =     -617.47824624
 


--------------------------------------------------------------------------------------------------------


    POTLOK:  cpu time    0.0614: real time    0.0617


--------------------------------------------------------------------------------------------------------


     LOOP+:  cpu time  200.0547: real time  200.2955
    4ORBIT:  cpu time    0.0000: real time    0.0000

 total amount of memory used by VASP on root node    75961. kBytes
========================================================================

   base      :      30000. kBytes
   nonlr-proj:       7847. kBytes
   fftplans  :       3890. kBytes
   grid      :       8747. kBytes
   one-center:         62. kBytes
   wavefun   :      25415. kBytes
 
  
  
 General timing and accounting informations for this job:
 ========================================================
  
                  Total CPU time used (sec):      216.923
                            User time (sec):      213.128
                          System time (sec):        3.795
                         Elapsed time (sec):      217.149
  
                   Maximum memory used (kb):      155684.
                   Average memory used (kb):           0.
  
                          Minor page faults:        40579
                          Major page faults:            0
                 Voluntary context switches:         2230
