 vasp.5.4.1 05Feb16 (build Mar 19 2020 08:54:17) complex                        
  
 executed on           IFC91_ompi date 2021.11.11  22:46:36
 running on   96 total cores
 distrk:  each k-point on   96 cores,    1 groups
 distr:  one band on NCORES_PER_BAND=  24 cores,    4 groups


--------------------------------------------------------------------------------------------------------


 INCAR:
 POTCAR:    PAW_PBE Al 04Jan2001                  
 POTCAR:    PAW_PBE Nb_sv 25May2007               
 POTCAR:    PAW_PBE Ta 17Jan2003                  
 POTCAR:    PAW_PBE Ti 08Apr2002                  
 POTCAR:   PAW_PBE Zr 08Apr2002                   
 POTCAR:    PAW_PBE O 08Apr2002                   

 ----------------------------------------------------------------------------- 
|                                                                             |
|           W    W    AA    RRRRR   N    N  II  N    N   GGGG   !!!           |
|           W    W   A  A   R    R  NN   N  II  NN   N  G    G  !!!           |
|           W    W  A    A  R    R  N N  N  II  N N  N  G       !!!           |
|           W WW W  AAAAAA  RRRRR   N  N N  II  N  N N  G  GGG   !            |
|           WW  WW  A    A  R   R   N   NN  II  N   NN  G    G                |
|           W    W  A    A  R    R  N    N  II  N    N   GGGG   !!!           |
|                                                                             |
|      For optimal performance we recommend to set                            |
|        NCORE= 4 - approx SQRT( number of cores)                             |
|      NCORE specifies how many cores store one orbital (NPAR=cpu/NCORE).     |
|      This setting can  greatly improve the performance of VASP for DFT.     |
|      The default, NPAR=number of cores might be grossly inefficient         |
|      on modern multi-core architectures or massively parallel machines.     |
|      Do your own testing !!!!                                               |
|      Unfortunately you need to use the default for GW and RPA calculations. |
|      (for HF NCORE is supported but not extensively tested yet)             |
|                                                                             |
 ----------------------------------------------------------------------------- 

 POTCAR:    PAW_PBE Al 04Jan2001                  
   VRHFIN =Al: s2p1                                                             
   LEXCH  = PE                                                                  
   EATOM  =    53.5387 eV,    3.9350 Ry                                         
                                                                                
   TITEL  = PAW_PBE Al 04Jan2001                                                
   LULTRA =        F    use ultrasoft PP ?                                      
   IUNSCR =        1    unscreen: 0-lin 1-nonlin 2-no                           
   RPACOR =    1.500    partial core radius                                     
   POMASS =   26.981; ZVAL   =    3.000    mass and valenz                      
   RCORE  =    1.900    outmost cutoff radius                                   
   RWIGS  =    2.650; RWIGS  =    1.402    wigner-seitz radius (au A)           
   ENMAX  =  240.300; ENMIN  =  180.225 eV                                      
   ICORE  =        2    local potential                                         
   LCOR   =        T    correct aug charges                                     
   LPAW   =        T    paw PP                                                  
   EAUG   =  291.052                                                            
   DEXC   =    0.000                                                            
   RMAX   =    1.939    core radius for proj-oper                               
   RAUG   =    1.300    factor for augmentation sphere                          
   RDEP   =    1.966    radius for radial grids                                 
   RDEPT  =    1.856    core radius for aug-charge                              
                                                                                
   Atomic configuration                                                         
    6 entries                                                                   
     n  l   j            E        occ.                                          
     1  0  0.50     -1511.1048   2.0000                                         
     2  0  0.50      -108.1629   2.0000                                         
     2  1  1.50       -69.6402   6.0000                                         
     3  0  0.50        -7.7528   2.0000                                         
     3  1  1.50        -2.7121   1.0000                                         
     3  2  2.50        -2.7212   0.0000                                         
   Description                                                                  
     l       E           TYP  RCUT    TYP  RCUT                                 
     0     -7.7528455     23  1.900                                             
     0     -3.3096929     23  1.900                                             
     1     -2.7120682     23  1.900                                             
     1     13.6058260     23  1.900                                             
     2     -2.7211652      7  1.900                                             
  local pseudopotential read in
  partial core-charges read in
  partial kinetic energy density read in
  atomic valenz-charges read in
  non local Contribution for L=           0  read in
    real space projection operators read in
  non local Contribution for L=           0  read in
    real space projection operators read in
  non local Contribution for L=           1  read in
    real space projection operators read in
  non local Contribution for L=           1  read in
    real space projection operators read in
    PAW grid and wavefunctions read in
 
   number of l-projection  operators is LMAX  =           4
   number of lm-projection operators is LMMAX =           8
 
 POTCAR:    PAW_PBE Nb_sv 25May2007               
   VRHFIN =Nb: 4p5s4d                                                           
   LEXCH  = PE                                                                  
   EATOM  =  1555.1913 eV,  114.3033 Ry                                         
                                                                                
   TITEL  = PAW_PBE Nb_sv 25May2007                                             
   LULTRA =        F    use ultrasoft PP ?                                      
   IUNSCR =        1    unscreen: 0-lin 1-nonlin 2-no                           
   RPACOR =    1.800    partial core radius                                     
   POMASS =   92.910; ZVAL   =   13.000    mass and valenz                      
   RCORE  =    2.400    outmost cutoff radius                                   
   RWIGS  =    2.400; RWIGS  =    1.270    wigner-seitz radius (au A)           
   ENMAX  =  293.235; ENMIN  =  219.927 eV                                      
   ICORE  =        3    local potential                                         
   LCOR   =        T    correct aug charges                                     
   LPAW   =        T    paw PP                                                  
   EAUG   =  455.659                                                            
   DEXC   =    0.000                                                            
   RMAX   =    2.456    core radius for proj-oper                               
   RAUG   =    1.300    factor for augmentation sphere                          
   RDEP   =    2.451    radius for radial grids                                 
   RDEPT  =    1.956    core radius for aug-charge                              
                                                                                
   Atomic configuration                                                         
   11 entries                                                                   
     n  l   j            E        occ.                                          
     1  0  0.50    -18805.2457   2.0000                                         
     2  0  0.50     -2630.2869   2.0000                                         
     2  1  1.50     -2348.4046   6.0000                                         
     3  0  0.50      -438.8757   2.0000                                         
     3  1  1.50      -346.7588   6.0000                                         
     3  2  2.50      -196.2560  10.0000                                         
     4  0  0.50       -58.3859   2.0000                                         
     5  0  0.50        -3.9816   1.0000                                         
     4  1  1.50       -34.5141   6.0000                                         
     4  2  2.50        -3.0408   4.0000                                         
     4  3  2.50        -1.3606   0.0000                                         
   Description                                                                  
     l       E           TYP  RCUT    TYP  RCUT                                 
     0    -58.3859094     23  2.200                                             
     0     -3.9816262     23  2.200                                             
     1    -34.5140738     23  2.200                                             
     1     13.6058260     23  2.200                                             
     2     -3.0408010     23  2.200                                             
     2     -0.1283038     23  2.200                                             
     3     -1.3605826     23  2.400                                             
  local pseudopotential read in
  partial core-charges read in
  partial kinetic energy density read in
  atomic valenz-charges read in
  non local Contribution for L=           0  read in
    real space projection operators read in
  non local Contribution for L=           0  read in
    real space projection operators read in
  non local Contribution for L=           1  read in
    real space projection operators read in
  non local Contribution for L=           1  read in
    real space projection operators read in
  non local Contribution for L=           2  read in
    real space projection operators read in
  non local Contribution for L=           2  read in
    real space projection operators read in
    PAW grid and wavefunctions read in
 
   number of l-projection  operators is LMAX  =           6
   number of lm-projection operators is LMMAX =          18
 
 POTCAR:    PAW_PBE Ta 17Jan2003                  
   VRHFIN =Ta:  6s5d                                                            
   LEXCH  = PE                                                                  
   EATOM  =   130.6506 eV,    9.6025 Ry                                         
                                                                                
   TITEL  = PAW_PBE Ta 17Jan2003                                                
   LULTRA =        F    use ultrasoft PP ?                                      
   IUNSCR =        1    unscreen: 0-lin 1-nonlin 2-no                           
   RPACOR =    2.330    partial core radius                                     
   POMASS =  180.948; ZVAL   =    5.000    mass and valenz                      
   RCORE  =    2.900    outmost cutoff radius                                   
   RWIGS  =    2.840; RWIGS  =    1.503    wigner-seitz radius (au A)           
   ENMAX  =  223.667; ENMIN  =  167.750 eV                                      
   RCLOC  =    2.205    cutoff for local pot                                    
   LCOR   =        T    correct aug charges                                     
   LPAW   =        T    paw PP                                                  
   EAUG   =  332.075                                                            
   DEXC   =    0.000                                                            
   RMAX   =    2.970    core radius for proj-oper                               
   RAUG   =    1.300    factor for augmentation sphere                          
   RDEP   =    3.060    radius for radial grids                                 
   RDEPT  =    2.354    core radius for aug-charge                              
                                                                                
   Atomic configuration                                                         
   16 entries                                                                   
     n  l   j            E        occ.                                          
     1  0  0.50    -67341.2807   2.0000                                         
     2  0  0.50    -11566.9376   2.0000                                         
     2  1  1.50    -10134.1182   6.0000                                         
     3  0  0.50     -2648.5620   2.0000                                         
     3  1  1.50     -2222.6012   6.0000                                         
     3  2  2.50     -1726.3120  10.0000                                         
     4  0  0.50      -538.6961   2.0000                                         
     4  1  1.50      -399.0129   6.0000                                         
     4  2  2.50      -220.3959  10.0000                                         
     4  3  3.50       -23.0374  14.0000                                         
     5  0  0.50       -71.2901   2.0000                                         
     5  1  1.50       -37.8225   6.0000                                         
     5  2  2.50        -2.6455   4.0000                                         
     6  0  0.50        -4.9623   1.0000                                         
     6  1  1.50        -1.3606   0.0000                                         
     5  3  2.50        -1.3606   0.0000                                         
   Description                                                                  
     l       E           TYP  RCUT    TYP  RCUT                                 
     2     -2.6455043     23  2.500                                             
     2     -0.6258895     23  2.500                                             
     0     -4.9622780     23  2.500                                             
     0      4.7531321     23  2.500                                             
     1     -1.3605826     23  2.900                                             
     1     27.2116520     23  2.900                                             
  local pseudopotential read in
  partial core-charges read in
  partial kinetic energy density read in
  atomic valenz-charges read in
  non local Contribution for L=           2  read in
    real space projection operators read in
  non local Contribution for L=           2  read in
    real space projection operators read in
  non local Contribution for L=           0  read in
    real space projection operators read in
  non local Contribution for L=           0  read in
    real space projection operators read in
  non local Contribution for L=           1  read in
    real space projection operators read in
  non local Contribution for L=           1  read in
    real space projection operators read in
    PAW grid and wavefunctions read in
 
   number of l-projection  operators is LMAX  =           6
   number of lm-projection operators is LMMAX =          18
 
 POTCAR:    PAW_PBE Ti 08Apr2002                  
   VRHFIN =Ti: d3 s1                                                            
   LEXCH  = PE                                                                  
   EATOM  =    94.7928 eV,    6.9671 Ry                                         
                                                                                
   TITEL  = PAW_PBE Ti 08Apr2002                                                
   LULTRA =        F    use ultrasoft PP ?                                      
   IUNSCR =        1    unscreen: 0-lin 1-nonlin 2-no                           
   RPACOR =    2.200    partial core radius                                     
   POMASS =   47.880; ZVAL   =    4.000    mass and valenz                      
   RCORE  =    2.800    outmost cutoff radius                                   
   RWIGS  =    2.500; RWIGS  =    1.323    wigner-seitz radius (au A)           
   ENMAX  =  178.330; ENMIN  =  133.747 eV                                      
   RCLOC  =    2.215    cutoff for local pot                                    
   LCOR   =        T    correct aug charges                                     
   LPAW   =        T    paw PP                                                  
   EAUG   =  328.883                                                            
   DEXC   =    0.000                                                            
   RMAX   =    2.868    core radius for proj-oper                               
   RAUG   =    1.300    factor for augmentation sphere                          
   RDEP   =    2.885    radius for radial grids                                 
   RDEPT  =    2.320    core radius for aug-charge                              
                                                                                
   Atomic configuration                                                         
    9 entries                                                                   
     n  l   j            E        occ.                                          
     1  0  0.50     -4865.3608   2.0000                                         
     2  0  0.50      -533.1367   2.0000                                         
     2  1  1.50      -440.5031   6.0000                                         
     3  0  0.50       -59.3186   2.0000                                         
     3  1  1.50       -35.7012   6.0000                                         
     3  2  2.50        -1.9157   3.0000                                         
     4  0  0.50        -3.7291   1.0000                                         
     4  1  1.50        -4.0817   0.0000                                         
     4  3  2.50        -1.3606   0.0000                                         
   Description                                                                  
     l       E           TYP  RCUT    TYP  RCUT                                 
     2     -1.9156924     23  2.800                                             
     2     -0.4062961     23  2.800                                             
     0     -3.7290832     23  2.800                                             
     0     20.4087390     23  2.800                                             
     1     -5.4423304     23  2.800                                             
  local pseudopotential read in
  partial core-charges read in
  partial kinetic energy density read in
  atomic valenz-charges read in
  non local Contribution for L=           2  read in
    real space projection operators read in
  non local Contribution for L=           2  read in
    real space projection operators read in
  non local Contribution for L=           0  read in
    real space projection operators read in
  non local Contribution for L=           0  read in
    real space projection operators read in
  non local Contribution for L=           1  read in
    real space projection operators read in
    PAW grid and wavefunctions read in
 
   number of l-projection  operators is LMAX  =           5
   number of lm-projection operators is LMMAX =          15
 
 POTCAR:   PAW_PBE Zr 08Apr2002                   
   VRHFIN =Zr: 5s4d5p                                                           
   LEXCH  = PE                                                                  
   EATOM  =    77.8472 eV,    5.7216 Ry                                         
                                                                                
   TITEL  = PAW_PBE Zr 08Apr2002                                                
   LULTRA =        F    use ultrasoft PP ?                                      
   IUNSCR =        1    unscreen: 0-lin 1-nonlin 2-no                           
   RPACOR =    2.200    partial core radius                                     
   POMASS =   91.224; ZVAL   =    4.000    mass and valenz                      
   RCORE  =    3.000    outmost cutoff radius                                   
   RWIGS  =    3.070; RWIGS  =    1.625    wigner-seitz radius (au A)           
   ENMAX  =  154.632; ENMIN  =  115.974 eV                                      
   RCLOC  =    2.213    cutoff for local pot                                    
   LCOR   =        T    correct aug charges                                     
   LPAW   =        T    paw PP                                                  
   EAUG   =  243.217                                                            
   DEXC   =    -.082                                                            
   RMAX   =    3.708    core radius for proj-oper                               
   RAUG   =    1.300    factor for augmentation sphere                          
   RDEP   =    3.146    radius for radial grids                                 
   QCUT   =   -3.371; QGAM   =    6.742    optimization parameters              
                                                                                
   Description                                                                  
     l     E      TYP  RCUT    TYP  RCUT                                        
     2   .000     23  3.000                                                     
     2   .000     23  3.000                                                     
     0   .000     23  3.000                                                     
     0  2.000     23  3.000                                                     
     1  -.400     23  3.000                                                     
     3   .000      7   .000                                                     
  local pseudopotential read in
  partial core-charges read in
  atomic valenz-charges read in
  non local Contribution for L=           2  read in
    real space projection operators read in
  non local Contribution for L=           2  read in
    real space projection operators read in
  non local Contribution for L=           0  read in
    real space projection operators read in
  non local Contribution for L=           0  read in
    real space projection operators read in
  non local Contribution for L=           1  read in
    real space projection operators read in
    PAW grid and wavefunctions read in
 
   number of l-projection  operators is LMAX  =           5
   number of lm-projection operators is LMMAX =          15
 
 POTCAR:    PAW_PBE O 08Apr2002                   
   VRHFIN =O: s2p4                                                              
   LEXCH  = PE                                                                  
   EATOM  =   432.3788 eV,   31.7789 Ry                                         
                                                                                
   TITEL  = PAW_PBE O 08Apr2002                                                 
   LULTRA =        F    use ultrasoft PP ?                                      
   IUNSCR =        1    unscreen: 0-lin 1-nonlin 2-no                           
   RPACOR =    1.200    partial core radius                                     
   POMASS =   16.000; ZVAL   =    6.000    mass and valenz                      
   RCORE  =    1.520    outmost cutoff radius                                   
   RWIGS  =    1.550; RWIGS  =    0.820    wigner-seitz radius (au A)           
   ENMAX  =  400.000; ENMIN  =  300.000 eV                                      
   ICORE  =        2    local potential                                         
   LCOR   =        T    correct aug charges                                     
   LPAW   =        T    paw PP                                                  
   EAUG   =  605.392                                                            
   DEXC   =    0.000                                                            
   RMAX   =    1.553    core radius for proj-oper                               
   RAUG   =    1.300    factor for augmentation sphere                          
   RDEP   =    1.550    radius for radial grids                                 
   RDEPT  =    1.329    core radius for aug-charge                              
                                                                                
   Atomic configuration                                                         
    4 entries                                                                   
     n  l   j            E        occ.                                          
     1  0  0.50      -514.6923   2.0000                                         
     2  0  0.50       -23.9615   2.0000                                         
     2  1  0.50        -9.0305   4.0000                                         
     3  2  1.50        -9.5241   0.0000                                         
   Description                                                                  
     l       E           TYP  RCUT    TYP  RCUT                                 
     0    -23.9615318     23  1.200                                             
     0     -9.5240782     23  1.200                                             
     1     -9.0304911     23  1.520                                             
     1      8.1634956     23  1.520                                             
     2     -9.5240782      7  1.500                                             
  local pseudopotential read in
  partial core-charges read in
  partial kinetic energy density read in
  kinetic energy density of atom read in
  atomic valenz-charges read in
  non local Contribution for L=           0  read in
    real space projection operators read in
  non local Contribution for L=           0  read in
    real space projection operators read in
  non local Contribution for L=           1  read in
    real space projection operators read in
  non local Contribution for L=           1  read in
    real space projection operators read in
    PAW grid and wavefunctions read in
 
   number of l-projection  operators is LMAX  =           4
   number of lm-projection operators is LMMAX =           8
 
 Optimization of the real space projectors (new method)

 maximal supplied QI-value         = 19.84
 optimisation between [QCUT,QGAM] = [ 12.50, 25.00] = [ 43.76,175.03] Ry 
 Optimized for a Real-space Cutoff    1.06 Angstroem

   l    n(q)    QCUT    max X(q) W(low)/X(q) W(high)/X(q)  e(spline) 
   0      8    12.501   176.870    0.16E-03    0.12E-03    0.66E-07
   0      8    12.501   105.762    0.15E-03    0.12E-03    0.64E-07
   1      7    12.501    55.370    0.36E-03    0.38E-03    0.67E-07
   1      7    12.501    20.208    0.32E-03    0.35E-03    0.64E-07
 Optimization of the real space projectors (new method)

 maximal supplied QI-value         = 15.68
 optimisation between [QCUT,QGAM] = [ 12.55, 25.10] = [ 44.09,176.36] Ry 
 Optimized for a Real-space Cutoff    1.56 Angstroem

   l    n(q)    QCUT    max X(q) W(low)/X(q) W(high)/X(q)  e(spline) 
   0     12    12.548    10.201    0.21E-04    0.36E-05    0.83E-07
   0     12    12.548     8.174    0.31E-04    0.62E-05    0.15E-06
   1     11    12.548     3.488    0.79E-05    0.23E-04    0.21E-06
   1     11    12.548     4.917    0.56E-04    0.13E-03    0.11E-05
   2     11    12.548   153.744    0.25E-03    0.10E-03    0.15E-05
   2     11    12.548   126.342    0.25E-03    0.10E-03    0.15E-05
 Optimization of the real space projectors (new method)

 maximal supplied QI-value         = 12.85
 optimisation between [QCUT,QGAM] = [ 12.46, 25.06] = [ 43.51,175.83] Ry 
 Optimized for a Real-space Cutoff    1.56 Angstroem

   l    n(q)    QCUT    max X(q) W(low)/X(q) W(high)/X(q)  e(spline) 
   2     11    12.465    62.315    0.36E-03    0.20E-03    0.15E-05
   2     11    12.465    52.185    0.36E-03    0.20E-03    0.15E-05
   0     12    12.465   103.837    0.22E-04    0.37E-05    0.56E-06
   0     12    12.465    59.728    0.20E-04    0.34E-05    0.51E-06
   1     11    12.465    13.958    0.44E-03    0.81E-03    0.81E-05
   1     11    12.465     8.441    0.31E-03    0.56E-03    0.56E-05
 Optimization of the real space projectors (new method)

 maximal supplied QI-value         = 13.42
 optimisation between [QCUT,QGAM] = [ 12.48, 25.09] = [ 43.60,176.28] Ry 
 Optimized for a Real-space Cutoff    1.56 Angstroem

   l    n(q)    QCUT    max X(q) W(low)/X(q) W(high)/X(q)  e(spline) 
   2     11    12.478    49.363    0.45E-03    0.34E-03    0.89E-06
   2     11    12.478    47.669    0.44E-03    0.33E-03    0.87E-06
   0     12    12.478    26.374    0.17E-03    0.37E-04    0.21E-05
   0     12    12.478    11.549    0.13E-03    0.31E-04    0.17E-05
   1     11    12.478     9.492    0.91E-05    0.64E-04    0.34E-06
 Optimization of the real space projectors (new method)

 maximal supplied QI-value         = 12.47
 optimisation between [QCUT,QGAM] = [ 12.47, 25.07] = [ 43.56,175.99] Ry 
 Optimized for a Real-space Cutoff    1.70 Angstroem

   l    n(q)    QCUT    max X(q) W(low)/X(q) W(high)/X(q)  e(spline) 
   2     12    12.472     5.149    0.23E-04    0.12E-05    0.19E-06
   2     12    12.472    48.417    0.26E-03    0.15E-03    0.35E-05
   0     13    12.472    27.113    0.15E-04    0.46E-05    0.14E-06
   0     13    12.472    33.957    0.20E-04    0.33E-04    0.12E-05
   1     12    12.472    13.771    0.11E-04    0.23E-05    0.34E-06
 WARNING: PSMAXN for non-local potential too small
          PSMAXN should be >   12.5490833729506       NTYP=           5
 Optimization of the real space projectors (new method)

 maximal supplied QI-value         = 24.76
 optimisation between [QCUT,QGAM] = [ 12.38, 25.00] = [ 42.90,175.06] Ry 
 Optimized for a Real-space Cutoff    1.13 Angstroem

   l    n(q)    QCUT    max X(q) W(low)/X(q) W(high)/X(q)  e(spline) 
   0      8    12.378    20.381    0.16E-03    0.54E-05    0.27E-06
   0      8    12.378    15.268    0.17E-03    0.61E-05    0.29E-06
   1      8    12.378     5.964    0.38E-03    0.23E-03    0.28E-06
   1      8    12.378     5.382    0.33E-03    0.20E-03    0.25E-06
  PAW_PBE Al 04Jan2001                  :
 energy of atom  1       EATOM=  -53.5387
 kinetic energy error for atom=    0.0002 (will be added to EATOM!!)
  PAW_PBE Nb_sv 25May2007               :
 energy of atom  2       EATOM=-1555.1913
 kinetic energy error for atom=    0.0037 (will be added to EATOM!!)
  PAW_PBE Ta 17Jan2003                  :
 energy of atom  3       EATOM= -130.6506
 kinetic energy error for atom=    0.0004 (will be added to EATOM!!)
  PAW_PBE Ti 08Apr2002                  :
 energy of atom  4       EATOM=  -94.7928
 kinetic energy error for atom=    0.0001 (will be added to EATOM!!)
 PAW_PBE Zr 08Apr2002                   :
 energy of atom  5       EATOM=  -77.8472
 kinetic energy error for atom=    0.0001 (will be added to EATOM!!)
  PAW_PBE O 08Apr2002                   :
 energy of atom  6       EATOM= -432.3788
 kinetic energy error for atom=    0.0168 (will be added to EATOM!!)
 
 
 POSCAR: Al Nb Ta Ti Zr                          
  positions in direct lattice
  velocities in cartesian coordinates
 exchange correlation table for  LEXCH =        8
   RHO(1)=    0.500       N(1)  =     2000
   RHO(2)=  100.500       N(2)  =     4000
 


--------------------------------------------------------------------------------------------------------


 ion  position               nearest neighbor table
   1  0.623  0.867  0.376-  34 2.83  25 2.88  24 2.88   9 2.88  13 2.90   4 2.91  61 2.93  15 3.16
                            41 3.35  17 3.40
   2  0.614  0.403  0.547-  31 2.76  33 2.77  23 2.79  62 2.93  10 2.96   7 2.96  26 2.97  14 2.97
                             3 3.05  17 3.11  16 3.15  42 3.55
   3  0.590  0.629  0.624-  79 1.84  75 1.84  78 1.90  32 2.65  33 2.74   8 2.80  26 2.82  45 2.92
                            23 2.98   2 3.05  14 3.09
   4  0.618  0.084  0.450-  31 2.80  24 2.86  34 2.87  13 2.88   1 2.91  25 2.92   7 2.92  62 2.95
                            28 3.16  10 3.17  46 3.24
   5  0.970  0.634  0.545-  82 2.08  27 2.69  30 2.80  63 2.81  42 2.95  47 3.02  56 3.07  52 3.14
                            23 3.16  57 3.21  59 3.35  54 3.60
   6  0.980  0.121  0.378-  29 2.80  28 2.80  53 2.91  41 2.96  51 3.05  55 3.05  60 3.08  57 3.37

   7  0.729  0.343  0.458-  28 2.77  29 2.83  31 2.85  17 2.89  11 2.90   4 2.92   2 2.96  62 3.05
                            63 3.07  42 3.22
   8  0.726  0.844  0.632-  78 2.03  71 2.05  77 2.07  79 2.12  27 2.73  32 2.80   3 2.80  30 2.90
                            12 2.90  18 2.95  64 3.20
   9  0.517  0.608  0.367-  35 2.84  15 2.85  17 2.87   1 2.88  11 2.89  61 2.95  43 3.10
  10  0.506  0.136  0.548-  16 2.84  36 2.88  62 2.94   2 2.96  12 2.97  18 3.00  46 3.07  31 3.10
                            44 3.11   4 3.17  40 3.40
  11  0.618  0.343  0.369-  24 2.75  34 2.83  31 2.87   9 2.89   7 2.90  61 2.96  43 3.27
  12  0.620  0.873  0.542-  13 2.79  32 2.81  33 2.85  23 2.85  62 2.86   8 2.90  25 2.91  10 2.97
                            44 3.40
  13  0.742  0.843  0.462-  12 2.79  17 2.87   4 2.88   1 2.90  28 2.94  30 2.97  63 2.98  41 3.05
                            23 3.10  57 3.27
  14  0.742  0.392  0.633-  76 2.01  74 2.02  79 2.24  42 2.90   2 2.97  18 3.00  27 3.01  64 3.09
                             3 3.09  58 3.17
  15  0.394  0.847  0.369-  22 2.68  19 2.76  25 2.83  34 2.84   9 2.85  39 2.98   1 3.16  46 3.43

  16  0.386  0.378  0.548-  21 2.62  20 2.83  10 2.84  26 2.87  40 2.90  33 2.91  37 2.94  31 3.06
                             2 3.15  45 3.46
  17  0.619  0.602  0.458-  33 2.78  25 2.81  31 2.85   9 2.87  13 2.87   7 2.89  61 2.95  23 2.99
                            35 3.03   2 3.11   1 3.40  63 3.44
  18  0.632  0.122  0.636-  72 2.04  74 2.05  71 2.05  32 2.68  62 2.86   8 2.95  10 3.00  14 3.00
                            26 3.01  64 3.12  36 3.19
  19  0.279  0.834  0.451-  15 2.76  35 2.94  46 2.96  39 2.97  25 2.99  44 3.02  60 3.07  51 3.08
                            47 3.12  21 3.22  56 3.37
  20  0.270  0.352  0.632-  69 2.01  70 2.05  67 2.18  16 2.83  36 2.99  48 3.01  52 3.01  40 3.07
                            59 3.08  26 3.12  45 3.20
  21  0.275  0.597  0.534-  80 2.09  82 2.16  16 2.62  35 2.86  47 2.91  37 2.95  52 2.98  44 2.99
                            33 3.06  45 3.08  56 3.15  59 3.21  19 3.22
  22  0.283  0.077  0.361-  15 2.68  46 2.97  43 2.97  34 2.99  51 3.02  55 3.10  60 3.10
  23  0.741  0.631  0.547-  79 2.18   2 2.79  12 2.85  30 2.87  27 2.89   3 2.98  17 2.99  63 3.04
                            13 3.10  42 3.13   5 3.16
  24  0.740  0.115  0.366-  29 2.73  11 2.75  28 2.85   4 2.86   1 2.88  41 3.00
  25  0.496  0.836  0.458-  35 2.78  17 2.81  15 2.83   1 2.88  33 2.89  12 2.91   4 2.92  19 2.99
                            46 2.99  44 3.03
  26  0.497  0.368  0.636-  70 1.90  75 1.91  74 1.95   3 2.82  36 2.86  16 2.87   2 2.97  18 3.01
                            20 3.12  45 3.13
  27  0.870  0.648  0.629-  76 2.03  79 2.04  68 2.07  77 2.15   5 2.69  58 2.71   8 2.73  23 2.89
                            54 3.00  14 3.01  30 3.08  42 3.49
  28  0.847  0.110  0.455-   7 2.77   6 2.80  24 2.85  57 2.90  13 2.94  53 2.98  62 3.01  29 3.15
                             4 3.16  50 3.17  41 3.36
  29  0.852  0.349  0.376-  24 2.73   6 2.80   7 2.83  53 2.94  61 2.98  49 3.07  28 3.15  63 3.25

  30  0.859  0.878  0.552-  83 2.14  77 2.24   5 2.80  23 2.87  57 2.90   8 2.90  13 2.97  50 3.04
                            27 3.08  62 3.15  64 3.36  54 3.49
  31  0.522  0.339  0.461-   2 2.76   4 2.80  17 2.85   7 2.85  35 2.86  11 2.87  46 2.95  16 3.06
                            10 3.10  43 3.11
  32  0.526  0.888  0.632-  78 1.88  65 2.01  72 2.01   3 2.65  36 2.68  18 2.68   8 2.80  12 2.81
                            45 3.06  44 3.12
  33  0.496  0.636  0.536-   3 2.74  35 2.75   2 2.77  17 2.78  44 2.84  12 2.85  25 2.89  16 2.91
                            21 3.06  45 3.08
  34  0.499  0.102  0.365-  11 2.83   1 2.83  15 2.84   4 2.87  43 2.91  46 2.98  22 2.99
  35  0.400  0.580  0.451-  33 2.75  25 2.78   9 2.84  31 2.86  21 2.86  37 2.88  39 2.93  19 2.94
                            17 3.03  43 3.08
  36  0.401  0.103  0.638-  72 1.93  70 2.01  67 2.04  65 2.13  32 2.68  26 2.86  10 2.88  38 2.94
                            20 2.99  40 3.14  18 3.19  44 3.33
  37  0.255  0.366  0.464-  35 2.88  16 2.94  21 2.95  47 3.02  60 3.04  43 3.05  55 3.08  46 3.08
                            52 3.10  40 3.22  39 3.39
  38  0.232  0.915  0.637-  73 1.90  67 2.04  65 2.05  80 2.13  56 2.86  54 2.89  36 2.94  48 2.96
                            59 3.09  44 3.15  40 3.24  45 3.26
  39  0.252  0.614  0.376-  35 2.93  19 2.97  15 2.98  47 3.07  43 3.07  51 3.07  55 3.08  37 3.39
                            49 3.53
  40  0.259  0.137  0.549-  67 2.43  16 2.90  44 2.98  52 3.07  20 3.07  46 3.12  36 3.14  60 3.16
                            56 3.22  37 3.22  38 3.24  48 3.27  10 3.40  50 3.48
  41  0.865  0.859  0.370-   6 2.96  24 3.00  61 3.05  13 3.05  57 3.06  49 3.12   1 3.35  28 3.36
                            51 3.49  63 3.53
  42  0.870  0.362  0.551-  81 2.26  83 2.55  14 2.90   5 2.95  62 3.01  50 3.12  23 3.13  58 3.15
                             7 3.22  53 3.25  63 3.37  64 3.42  52 3.45  27 3.49   2 3.55
  43  0.381  0.352  0.373-  34 2.91  22 2.97  37 3.05  39 3.07  35 3.08   9 3.10  31 3.11  55 3.26
                            11 3.27  46 3.29
  44  0.374  0.873  0.548-  80 2.33  65 2.40  33 2.84  40 2.98  21 2.99  19 3.02  25 3.03  10 3.11
                            32 3.12  45 3.14  38 3.15  56 3.32  36 3.33  46 3.39  12 3.40
  45  0.379  0.647  0.631-  69 2.10  75 2.10  80 2.23  65 2.25   3 2.92  32 3.06  33 3.08  21 3.08
                            26 3.13  44 3.14  20 3.20  59 3.24  38 3.26  16 3.46
  46  0.384  0.104  0.456-  31 2.95  19 2.96  22 2.97  34 2.98  25 2.99  10 3.07  37 3.08  40 3.12
                             4 3.24  60 3.27  43 3.29  44 3.39  15 3.43
  47  0.117  0.611  0.465-  82 2.29  21 2.91   5 3.02  37 3.02  39 3.07  19 3.12  53 3.14  49 3.15
                            57 3.17  52 3.26  56 3.28  63 3.42  51 3.52  55 3.80
  48  0.099  0.157  0.637-  66 2.14  67 2.15  81 2.20  38 2.96  20 3.01  54 3.02  58 3.05  50 3.08
                            52 3.20  40 3.27  64 3.34  56 3.83
  49  0.996  0.593  0.368-  63 3.05  29 3.07  41 3.12  47 3.15  51 3.16  55 3.23  53 3.44  39 3.53
                            61 3.65  57 3.82
  50  0.009  0.108  0.536-  83 2.13  81 2.19  57 2.99  56 3.01  60 3.04  30 3.04  48 3.08  52 3.11
                            42 3.12  53 3.14  28 3.17  40 3.48  64 3.55  54 3.85
  51  0.119  0.872  0.375-  60 3.00  22 3.02   6 3.05  39 3.07  19 3.08  57 3.16  49 3.16  41 3.49
                            47 3.52
  52  0.120  0.387  0.553-  81 2.18  82 2.21  21 2.98  20 3.01  40 3.07  59 3.08  37 3.10  50 3.11
                             5 3.14  48 3.20  47 3.26  53 3.28  58 3.44  42 3.45
  53  1.000  0.331  0.453-   6 2.91  29 2.94  28 2.98  60 3.06  63 3.08  55 3.09  50 3.14  47 3.14
                            42 3.25  52 3.28  49 3.44
  54  0.027  0.860  0.646-  77 2.12  73 2.15  68 2.24  59 2.86  38 2.89  27 3.00  48 3.02  56 3.06
                            64 3.39  30 3.49   5 3.60  50 3.85
  55  0.145  0.332  0.368-   6 3.05  37 3.08  39 3.08  53 3.09  22 3.10  49 3.23  60 3.24  43 3.26
                            47 3.80
  56  0.134  0.852  0.548-  82 2.26  80 2.30  38 2.86  50 3.01  54 3.06   5 3.07  57 3.15  21 3.15
                            59 3.18  40 3.22  47 3.28  44 3.32  19 3.37  60 3.55  48 3.83
  57  0.979  0.876  0.465-  28 2.90  30 2.90  50 2.99  41 3.06  63 3.11  60 3.13  56 3.15  51 3.16
                            47 3.17   5 3.21  13 3.27   6 3.37  49 3.82
  58  0.969  0.411  0.652-  76 2.08  66 2.11  81 2.20  68 2.20  27 2.71  48 3.05  42 3.15  14 3.17
                            59 3.19  64 3.21  52 3.44
  59  0.145  0.618  0.630-  69 2.14  68 2.17  73 2.20  80 2.24  82 2.31  54 2.86  52 3.08  20 3.08
                            38 3.09  56 3.18  58 3.19  21 3.21  45 3.24   5 3.35
  60  0.147  0.092  0.451-  51 3.00  37 3.04  50 3.04  53 3.06  19 3.07   6 3.08  22 3.10  57 3.13
                            40 3.16  55 3.24  46 3.27  56 3.55
  61  0.731  0.606  0.367-   1 2.93  17 2.95   9 2.95  11 2.96  29 2.98  41 3.05  63 3.17  49 3.65

  62  0.719  0.137  0.542-  83 2.14  12 2.86  18 2.86   2 2.93  10 2.94   4 2.95  42 3.01  28 3.01
                             7 3.05  30 3.15  64 3.34
  63  0.869  0.592  0.458-   5 2.81  13 2.98  23 3.04  49 3.05   7 3.07  53 3.08  57 3.11  61 3.17
                            29 3.25  42 3.37  47 3.42  17 3.44  41 3.53
  64  0.859  0.118  0.640-  83 2.11  71 2.11  66 2.15  77 2.37  81 2.87  14 3.09  18 3.12   8 3.20
                            58 3.21  48 3.34  62 3.34  30 3.36  54 3.39  42 3.42  50 3.55
  65  0.380  0.882  0.635-  32 2.01  38 2.05  36 2.13  45 2.25  44 2.40
  66  0.976  0.208  0.681-  58 2.11  48 2.14  64 2.15
  67  0.254  0.125  0.637-  38 2.04  36 2.04  48 2.15  20 2.18  40 2.43
  68  0.003  0.634  0.664-  27 2.07  59 2.17  58 2.20  54 2.24
  69  0.269  0.536  0.666-  20 2.01  45 2.10  59 2.14
  70  0.390  0.290  0.670-  26 1.90  36 2.01  20 2.05
  71  0.739  0.020  0.674-  18 2.05   8 2.05  64 2.11
  72  0.515  0.056  0.675-  36 1.93  32 2.01  18 2.04
  73  0.161  0.797  0.679-  38 1.90  54 2.15  59 2.20
  74  0.621  0.319  0.665-  26 1.95  14 2.02  18 2.05
  75  0.499  0.551  0.664-   3 1.84  26 1.91  45 2.10
  76  0.838  0.492  0.676-  14 2.01  27 2.03  58 2.08
  77  0.876  0.872  0.632-   8 2.07  54 2.12  27 2.15  30 2.24  64 2.37
  78  0.608  0.775  0.669-  32 1.88   3 1.90   8 2.03
  79  0.723  0.624  0.625-   3 1.84  27 2.04   8 2.12  23 2.18  14 2.24
  80  0.257  0.742  0.590-  21 2.09  38 2.13  45 2.23  59 2.24  56 2.30  44 2.33
  81  0.002  0.277  0.589-  52 2.18  50 2.19  48 2.20  58 2.20  42 2.26  64 2.87
  82  0.121  0.617  0.547-   5 2.08  21 2.16  52 2.21  56 2.26  47 2.29  59 2.31
  83  0.865  0.099  0.564-  64 2.11  50 2.13  30 2.14  62 2.14  42 2.55
 
  LATTYP: Found a simple orthorhombic cell.
 ALAT       =     9.5644817352
 B/A-ratio  =     1.4398428730
 C/A-ratio  =     2.8922184390
  
  Lattice vectors:
  
 A1 = (   0.0000000000,  -9.5644817352,   0.0000000000)
 A2 = ( -13.7713508606,   0.0000000000,   0.0000000000)
 A3 = (   0.0000000000,   0.0000000000, -27.6625704340)


Analysis of symmetry for initial positions (statically):
=====================================================================
 Subroutine PRICEL returns:
 Original cell was already a primitive cell.
 

 Routine SETGRP: Setting up the symmetry group for a 
 simple orthorhombic supercell.


 Subroutine GETGRP returns: Found  1 space group operations
 (whereof  1 operations were pure point group operations)
 out of a pool of  8 trial point group operations.


The static configuration has the point symmetry C_1 .


Analysis of symmetry for dynamics (positions and initial velocities):
=====================================================================
 Subroutine PRICEL returns:
 Original cell was already a primitive cell.
 

 Routine SETGRP: Setting up the symmetry group for a 
 simple orthorhombic supercell.


 Subroutine GETGRP returns: Found  1 space group operations
 (whereof  1 operations were pure point group operations)
 out of a pool of  8 trial point group operations.


The dynamic configuration has the point symmetry C_1 .


Analysis of constrained symmetry for selective dynamics:
=====================================================================
 Subroutine PRICEL returns:
 Original cell was already a primitive cell.
 

 Routine SETGRP: Setting up the symmetry group for a 
 simple orthorhombic supercell.


 Subroutine GETGRP returns: Found  1 space group operations
 (whereof  1 operations were pure point group operations)
 out of a pool of  8 trial point group operations.


The constrained configuration has the point symmetry C_1 .


 Subroutine INISYM returns: Found  1 space group operations
 (whereof  1 operations are pure point group operations),
 and found     1 'primitive' translations

 
 
 KPOINTS: k-points                                

Automatic generation of k-mesh.
Space group operators:
 irot       det(A)        alpha          n_x          n_y          n_z        tau_x        tau_y        tau_z
    1     1.000000     0.000000     1.000000     0.000000     0.000000     0.000000     0.000000     0.000000
 
 Subroutine IBZKPT returns following result:
 ===========================================
 
 Found      5 irreducible k-points:
 
 Following reciprocal coordinates:
            Coordinates               Weight
  0.000000  0.000000  0.000000      1.000000
  0.333333  0.000000  0.000000      2.000000
  0.000000  0.333333  0.000000      2.000000
  0.333333  0.333333  0.000000      2.000000
 -0.333333  0.333333  0.000000      2.000000
 
 Following cartesian coordinates:
            Coordinates               Weight
  0.000000  0.000000  0.000000      1.000000
  0.024205  0.000000  0.000000      2.000000
  0.000000  0.034851  0.000000      2.000000
  0.024205  0.034851  0.000000      2.000000
 -0.024205  0.034851  0.000000      2.000000
 


--------------------------------------------------------------------------------------------------------




 Dimension of arrays:
   k-points           NKPTS =      5   k-points in BZ     NKDIM =      5   number of bands    NBANDS=    276
   number of dos      NEDOS =    301   number of ions     NIONS =     83
   non local maximal  LDIM  =      6   non local SUM 2l+1 LMDIM =     18
   total plane-waves  NPLWV = 846720
   max r-space proj   IRMAX =   4874   max aug-charges    IRDMAX=  25433
   dimension x,y,z NGX =    84 NGY =   60 NGZ =  168
   dimension x,y,z NGXF=   168 NGYF=  120 NGZF=  336
   support grid    NGXF=   168 NGYF=  120 NGZF=  336
   ions per type =               6  10   4  18  26  19
 NGX,Y,Z   is equivalent  to a cutoff of  10.14, 10.43, 10.10 a.u.
 NGXF,Y,Z  is equivalent  to a cutoff of  20.28, 20.86, 20.19 a.u.


 I would recommend the setting:
   dimension x,y,z NGX =    83 NGY =   57 NGZ =  166
 SYSTEM =  (110) surface                           
 POSCAR =  Al Nb Ta Ti Zr                          

 Startparameter for this run:
   NWRITE =      2    write-flag & timer
   PREC   = normal    normal or accurate (medium, high low for compatibility)
   ISTART =      0    job   : 0-new  1-cont  2-samecut
   ICHARG =      2    charge: 1-file 2-atom 10-const
   ISPIN  =      1    spin polarized calculation?
   LNONCOLLINEAR =      F non collinear calculations
   LSORBIT =      F    spin-orbit coupling
   INIWAV =      1    electr: 0-lowe 1-rand  2-diag
   LASPH  =      F    aspherical Exc in radial PAW
   METAGGA=      F    non-selfconsistent MetaGGA calc.

 Electronic Relaxation 1
   ENCUT  =  600.0 eV  44.10 Ry    6.64 a.u.  27.50 19.10 55.25*2*pi/ulx,y,z
   ENINI  =  600.0     initial cutoff
   ENAUG  =  605.4 eV  augmentation charge cutoff
   NELM   =     60;   NELMIN=  2; NELMDL= -5     # of ELM steps 
   EDIFF  = 0.1E-03   stopping-criterion for ELM
   LREAL  =      T    real-space projection
   NLSPLINE    = F    spline interpolate recip. space projectors
   LCOMPAT=      F    compatible to vasp.4.4
   GGA_COMPAT  = T    GGA compatible to vasp.4.4-vasp.4.6
   LMAXPAW     = -100 max onsite density
   LMAXMIX     =    2 max onsite mixed and CHGCAR
   VOSKOWN=      0    Vosko Wilk Nusair interpolation
   ROPT   =   -0.00050  -0.00050  -0.00050  -0.00050
   ROPT   =   -0.00050  -0.00050
 Ionic relaxation
   EDIFFG = -.1E-01   stopping-criterion for IOM
   NSW    =      0    number of steps for IOM
   NBLOCK =      1;   KBLOCK =      1    inner block; outer block 
   IBRION =     -1    ionic relax: 0-MD 1-quasi-New 2-CG
   NFREE  =      0    steps in history (QN), initial steepest desc. (CG)
   ISIF   =      2    stress and relaxation
   IWAVPR =     10    prediction:  0-non 1-charg 2-wave 3-comb
   ISYM   =      2    0-nonsym 1-usesym 2-fastsym
   LCORR  =      T    Harris-Foulkes like correction to forces

   POTIM  = 0.1000    time-step for ionic-motion
   TEIN   =    0.0    initial temperature
   TEBEG  =    0.0;   TEEND  =   0.0 temperature during run
   SMASS  =  -3.00    Nose mass-parameter (am)
   estimated Nose-frequenzy (Omega)   =  0.10E-29 period in steps =****** mass=  -0.433E-26a.u.
   SCALEE = 1.0000    scale energy and forces
   NPACO  =    256;   APACO  = 16.0  distance and # of slots for P.C.
   PSTRESS=    0.0 pullay stress

  Mass of Ions in am
   POMASS =  26.98 92.91180.95 47.88 91.22 16.00
  Ionic Valenz
   ZVAL   =   3.00 13.00  5.00  4.00  4.00  6.00
  Atomic Wigner-Seitz radii
   RWIGS  =  -1.00 -1.00 -1.00 -1.00 -1.00 -1.00
  virtual crystal weights 
   VCA    =   1.00  1.00  1.00  1.00  1.00  1.00
   NELECT =     458.0000    total number of electrons
   NUPDOWN=      -1.0000    fix difference up-down

 DOS related values:
   EMIN   =  10.00;   EMAX   =-10.00  energy-range for DOS
   EFERMI =   0.00
   ISMEAR =     2;   SIGMA  =   0.10  broadening in eV -4-tet -1-fermi 0-gaus

 Electronic relaxation 2 (details)
   IALGO  =     68    algorithm
   LDIAG  =      T    sub-space diagonalisation (order eigenvalues)
   LSUBROT=      F    optimize rotation matrix (better conditioning)
   TURBO    =      0    0=normal 1=particle mesh
   IRESTART =      0    0=no restart 2=restart with 2 vectors
   NREBOOT  =      0    no. of reboots
   NMIN     =      0    reboot dimension
   EREF     =   0.00    reference energy to select bands
   IMIX   =      4    mixing-type and parameters
     AMIX     =   0.40;   BMIX     =  1.00
     AMIX_MAG =   1.60;   BMIX_MAG =  1.00
     AMIN     =   0.10
     WC   =   100.;   INIMIX=   1;  MIXPRE=   1;  MAXMIX= -45

 Intra band minimization:
   WEIMIN = 0.0000     energy-eigenvalue tresh-hold
   EBREAK =  0.91E-07  absolut break condition
   DEPER  =   0.30     relativ break condition  

   TIME   =   0.40     timestep for ELM

  volume/ion in A,a.u.               =      43.90       296.24
  Fermi-wavevector in a.u.,A,eV,Ry     =   0.820074  1.549716  9.150213  0.672522
  Thomas-Fermi vector in A             =   1.930992
 
 Write flags
   LWAVE  =      F    write WAVECAR
   LCHARG =      F    write CHGCAR
   LVTOT  =      F    write LOCPOT, total local potential
   LVHAR  =      T    write LOCPOT, Hartree potential only
   LELF   =      F    write electronic localiz. function (ELF)
   LORBIT =      0    0 simple, 1 ext, 2 COOP (PROOUT)


 Dipole corrections
   LMONO  =      F    monopole corrections only (constant potential shift)
   LDIPOL =      F    correct potential (dipole corrections)
   IDIPOL =      0    1-x, 2-y, 3-z, 4-all directions 
   EPSILON=  1.0000000 bulk dielectric constant

 Exchange correlation treatment:
   GGA     =    --    GGA type
   LEXCH   =     8    internal setting for exchange type
   VOSKOWN=      0    Vosko Wilk Nusair interpolation
   LHFCALC =     F    Hartree Fock is set to
   LHFONE  =     F    Hartree Fock one center treatment
   AEXX    =    0.0000 exact exchange contribution

 Linear response parameters
   LEPSILON=     F    determine dielectric tensor
   LRPA    =     F    only Hartree local field effects (RPA)
   LNABLA  =     F    use nabla operator in PAW spheres
   LVEL    =     F    velocity operator in full k-point grid
   LINTERFAST=   F  fast interpolation
   KINTER  =     0    interpolate to denser k-point grid
   CSHIFT  =0.1000    complex shift for real part using Kramers Kronig
   OMEGAMAX=  -1.0    maximum frequency
   DEG_THRESHOLD= 0.2000000E-02 threshold for treating states as degnerate
   RTIME   =    0.100 relaxation time in fs

 Orbital magnetization related:
   ORBITALMAG=     F  switch on orbital magnetization
   LCHIMAG   =     F  perturbation theory with respect to B field
   DQ        =  0.001000  dq finite difference perturbation B field



--------------------------------------------------------------------------------------------------------


 Static calculation
 charge density and potential will be updated during run
 non-spin polarized calculation
 RMM-DIIS sequential band-by-band and
  variant of blocked Davidson during initial phase
 perform sub-space diagonalisation
    before iterative eigenvector-optimisation
 modified Broyden-mixing scheme, WC =      100.0
 initial mixing is a Kerker type mixing with AMIX =  0.4000 and BMIX =      1.0000
 Hartree-type preconditioning will be used
 using additional bands           47
 real space projection scheme for non local part
 use partial core corrections
 calculate Harris-corrections to forces 
   (improved forces if not selfconsistent)
 use gradient corrections 
 use of overlap-Matrix (Vanderbilt PP)
 Methfessel and Paxton  Order N= 2 SIGMA  =   0.10


--------------------------------------------------------------------------------------------------------


  energy-cutoff  :      600.00
  volume of cell :     3643.60
      direct lattice vectors                 reciprocal lattice vectors
    13.771350861  0.000000000  0.000000000     0.072614518  0.000000000  0.000000000
     0.000000000  9.564481735  0.000000000     0.000000000  0.104553496  0.000000000
     0.000000000  0.000000000 27.662570434     0.000000000  0.000000000  0.036149931

  length of vectors
    13.771350861  9.564481735 27.662570434     0.072614518  0.104553496  0.036149931


 
 k-points in units of 2pi/SCALE and weight: k-points                                
   0.00000000  0.00000000  0.00000000       0.111
   0.02420484  0.00000000  0.00000000       0.222
   0.00000000  0.03485117  0.00000000       0.222
   0.02420484  0.03485117  0.00000000       0.222
  -0.02420484  0.03485117  0.00000000       0.222
 
 k-points in reciprocal lattice and weights: k-points                                
   0.00000000  0.00000000  0.00000000       0.111
   0.33333333  0.00000000  0.00000000       0.222
   0.00000000  0.33333333  0.00000000       0.222
   0.33333333  0.33333333  0.00000000       0.222
  -0.33333333  0.33333333  0.00000000       0.222
 
 position of ions in fractional coordinates (direct lattice) 
   0.62276447  0.86746430  0.37590333
   0.61422346  0.40342947  0.54655613
   0.59009025  0.62882004  0.62357210
   0.61839700  0.08363760  0.44965952
   0.97049704  0.63419568  0.54540883
   0.97963780  0.12056648  0.37767599
   0.72857308  0.34338307  0.45816820
   0.72628390  0.84431470  0.63232197
   0.51739597  0.60805875  0.36719826
   0.50591830  0.13633883  0.54808239
   0.61811078  0.34297293  0.36889183
   0.62041205  0.87331949  0.54205200
   0.74231148  0.84345710  0.46199300
   0.74228431  0.39249519  0.63305297
   0.39405298  0.84738672  0.36896032
   0.38632067  0.37786621  0.54761095
   0.61928761  0.60162497  0.45752798
   0.63227349  0.12162477  0.63617645
   0.27944195  0.83362269  0.45088327
   0.27043806  0.35171747  0.63164231
   0.27521743  0.59699864  0.53389779
   0.28324246  0.07725573  0.36149931
   0.74111697  0.63106480  0.54663277
   0.74002355  0.11549973  0.36646499
   0.49591756  0.83582580  0.45790018
   0.49667873  0.36824264  0.63568486
   0.87025165  0.64781395  0.62893089
   0.84724605  0.11017048  0.45460239
   0.85243583  0.34907103  0.37639265
   0.85902630  0.87831575  0.55158802
   0.52175105  0.33942658  0.46105252
   0.52551969  0.88819205  0.63188829
   0.49584657  0.63596113  0.53634920
   0.49943882  0.10200214  0.36464270
   0.40016663  0.58028412  0.45130253
   0.40123803  0.10261088  0.63753124
   0.25505811  0.36595738  0.46399110
   0.23248558  0.91466145  0.63676801
   0.25182599  0.61397660  0.37627308
   0.25936024  0.13651166  0.54931468
   0.86539888  0.85904646  0.37036829
   0.87016374  0.36225172  0.55058785
   0.38059813  0.35186696  0.37331264
   0.37404117  0.87253463  0.54839883
   0.37903359  0.64743741  0.63112793
   0.38408008  0.10357511  0.45579618
   0.11657381  0.61110574  0.46457054
   0.09930098  0.15693136  0.63658844
   0.99629861  0.59295863  0.36811234
   0.00901245  0.10784443  0.53631381
   0.11869311  0.87196302  0.37467704
   0.12012161  0.38694467  0.55345969
   0.99977952  0.33051389  0.45306987
   0.02722256  0.85993461  0.64553197
   0.14482272  0.33176249  0.36788561
   0.13371341  0.85219890  0.54839531
   0.97888047  0.87608504  0.46520830
   0.96888895  0.41138469  0.65186989
   0.14499150  0.61835920  0.62971886
   0.14721048  0.09173214  0.45072276
   0.73135245  0.60578495  0.36679988
   0.71872283  0.13709203  0.54216421
   0.86923259  0.59196168  0.45825814
   0.85870422  0.11766645  0.64043246
   0.37957402  0.88234585  0.63521371
   0.97648838  0.20773375  0.68067895
   0.25360738  0.12526568  0.63696078
   0.00343555  0.63379262  0.66350987
   0.26899876  0.53557422  0.66648763
   0.38993317  0.28975720  0.67001275
   0.73909902  0.02045570  0.67433754
   0.51494340  0.05641748  0.67536025
   0.16142906  0.79708832  0.67908952
   0.62071105  0.31856513  0.66511516
   0.49879217  0.55081710  0.66406676
   0.83770052  0.49179188  0.67619606
   0.87561439  0.87225814  0.63198213
   0.60821045  0.77526676  0.66910775
   0.72331048  0.62401204  0.62478621
   0.25697999  0.74247223  0.58954373
   0.00178287  0.27731354  0.58937930
   0.12128131  0.61713255  0.54719845
   0.86510493  0.09874109  0.56447155
 
 position of ions in cartesian coordinates  (Angst):
   8.57630799  8.29684649 10.39845223
   8.45868681  3.85859375 15.11914745
   8.12633985  6.01433783 17.24960722
   8.51616202  0.79995025 12.43873821
  13.36505524  6.06575298 15.08741023
  13.49093588  1.15315590 10.44748880
  10.03343557  3.28428114 12.67411000
  10.00191040  8.07543254 17.49165103
   7.12524148  5.81576681 10.15764776
   6.96717843  1.30401021 15.16136782
   8.51222037  3.28035836 10.20449636
   8.54391197  8.35284831 14.99455166
  10.22263181  8.06723005 12.77991378
  10.22225763  3.75401312 17.51187238
   5.42664188  8.10481479 10.20639088
   5.32015753  3.61409450 15.14832650
   8.52842696  5.75423100 12.65640004
   8.70726010  1.16327786 17.59827591
   3.84829318  7.97316903 12.47259035
   3.72429746  3.36399530 17.47284980
   3.79011585  5.70998258 14.76898514
   3.90063135  0.73891098 10.00000000
  10.20618176  6.03580771 15.12126754
  10.19112400  1.10469510 10.13736353
   6.82945470  7.99424061 12.66669595
   6.83993700  3.52205000 17.58467715
  11.98454083  6.19600468 17.39784500
  11.66772263  1.05372358 12.57547056
  11.73919286  3.33868345 10.41198829
  11.82995254  8.40063498 15.25834242
   7.18521672  3.24643930 12.75389771
   7.23711597  8.49509663 17.47965422
   6.82847707  6.08263859 14.83679761
   6.87794726  0.97559764 10.08695433
   5.51083508  5.55011685 12.48418803
   5.52558975  0.98141985 17.63575294
   3.51249472  3.50019267 12.83518635
   3.20164050  8.74826273 17.61463995
   3.46798404  5.87236796 10.40868071
   3.57174088  1.30566327 15.19545612
  11.91771166  8.21633417 10.24533883
  11.98333014  3.46475000 15.23067524
   5.24135036  3.36542512 10.32678719
   5.15105213  8.34534149 15.17012135
   5.21980457  6.19240332 17.45862077
   5.28930157  0.99064225 12.60849381
   1.60537885  5.84490969 12.85121538
   1.36750860  1.50096708 17.60967268
  13.72037774  5.67134198 10.18293350
   0.12411358  1.03147612 14.83581861
   1.63456451  8.33987442 10.36453009
   1.65423682  3.70092523 15.31011779
  13.76831459  3.16119411 12.53307716
   0.37489149  8.22482885 17.85707370
   1.99440444  3.17313630 10.17666150
   1.84141435  8.15084077 15.17002396
  13.48050634  8.37929939 12.86885734
  13.34290974  3.93468133 18.03239687
   1.99672877  5.91428532 17.41964239
   2.02728715  0.87737042 12.46815015
  10.07171117  5.79401911 10.14662739
   9.89778433  1.31121423 14.99765554
  11.97050705  5.66180669 12.67659812
  11.82551708  1.12541857 17.71600803
   5.22724703  8.43918075 17.57164389
  13.44756406  1.98686568 18.82932934
   3.49251618  1.19810132 17.61997237
   0.04731212  6.06189798 18.35438852
   3.70447631  5.12248985 18.43676091
   5.36990644  2.77137741 18.53427496
  10.17839197  0.19564816 18.65390958
   7.09146625  0.53960397 18.68220052
   2.22309620  7.62373664 18.78536180
   8.54802971  3.04691039 18.39879506
   6.86904201  5.26828013 18.36979343
  11.53626776  4.70373444 18.70532111
  12.05839293  8.34269708 17.48225021
   8.37587955  7.41502477 18.50924034
   9.96096235  5.96835175 17.28319244
   3.53896158  7.10136211 16.30829492
   0.02455254  2.65236025 16.30374646
   1.67020746  5.90255297 15.13691560
  11.91366347  0.94440733 15.61473393
 


--------------------------------------------------------------------------------------------------------


 k-point  1 :   0.0000 0.0000 0.0000  plane waves:  121663
 k-point  2 :   0.3333 0.0000 0.0000  plane waves:  121577
 k-point  3 :   0.0000 0.3333 0.0000  plane waves:  121622
 k-point  4 :   0.3333 0.3333 0.0000  plane waves:  121647
 k-point  5 :  -0.3333 0.3333 0.0000  plane waves:  121647

 maximum and minimum number of plane-waves per node :      5107     5041

 maximum number of plane-waves:    121663
 maximum index in each direction: 
   IXMAX=   27   IYMAX=   19   IZMAX=   55
   IXMIN=  -27   IYMIN=  -19   IZMIN=  -55

 WARNING: aliasing errors must be expected set NGX to 110 to avoid them
 WARNING: aliasing errors must be expected set NGY to  78 to avoid them
 WARNING: aliasing errors must be expected set NGZ to 222 to avoid them
 aliasing errors are usually negligible using standard VASP settings
 and one can safely disregard these warnings

 real space projection operators:
  total allocation   :      30931.04 KBytes
  max/ min on nodes  :       1497.20       1059.88


 parallel 3D FFT for wavefunctions:
    minimum data exchange during FFTs selected (reduces bandwidth)
 parallel 3D FFT for charge:
    minimum data exchange during FFTs selected (reduces bandwidth)


 total amount of memory used by VASP on root node    79581. kBytes
========================================================================

   base      :      30000. kBytes
   nonlr-proj:       8554. kBytes
   fftplans  :       3890. kBytes
   grid      :       8747. kBytes
   one-center:         62. kBytes
   wavefun   :      28328. kBytes
 
     INWAV:  cpu time    0.0000: real time    0.0000
 Broyden mixing: mesh for mixing (old mesh)
   NGX = 55   NGY = 39   NGZ =111
  (NGX  =168   NGY  =120   NGZ  =336)
  gives a total of 238095 points

 initial charge density was supplied:
 charge density of overlapping atoms calculated
 number of electron     458.0000000 magnetization 
 keeping initial charge density in first step


--------------------------------------------------------------------------------------------------------


 Maximum index for non-local projection operator          377
 Maximum index for augmentation-charges         1033 (set IRDMAX)


--------------------------------------------------------------------------------------------------------


 First call to EWALD:  gamma=   0.115
 Maximum number of real-space cells 3x 4x 2
 Maximum number of reciprocal cells 3x 2x 5

 FEWALD executed in parallel
    FEWALD:  cpu time    0.0023: real time    0.0023


----------------------------------------- Iteration    1(   1)  ---------------------------------------


    POTLOK:  cpu time    0.0595: real time    0.0606
    SETDIJ:  cpu time    0.0135: real time    0.0140
     EDDAV:  cpu time    6.6045: real time    6.6075
       DOS:  cpu time    0.0010: real time    0.0010
    --------------------------------------------
      LOOP:  cpu time    6.6824: real time    6.6877

 eigenvalue-minimisations  :  2872
 total energy-change (2. order) : 0.5926272E+04  (-0.1749970E+05)
 number of electron     458.0000000 magnetization 
 augmentation part      458.0000000 magnetization 

 Free energy of the ion-electron system (eV)
  ---------------------------------------------------
  alpha Z        PSCENC =       731.07203600
  Ewald energy   TEWEN  =    112873.73091591
  -Hartree energ DENC   =   -138347.63812542
  -exchange      EXHF   =         0.00000000
  -V(xc)+E(xc)   XCENC  =     -2557.18818961
  PAW double counting   =     26023.72118408   -21966.66214748
  entropy T*S    EENTRO =        -0.00073002
  eigenvalues    EBANDS =       828.35654973
  atomic energy  EATOM  =     28340.88018857
  Solvation  Ediel_sol  =         0.00000000
  ---------------------------------------------------
  free energy    TOTEN  =      5926.27168176 eV

  energy without entropy =     5926.27241178  energy(sigma->0) =     5926.27186427


--------------------------------------------------------------------------------------------------------




----------------------------------------- Iteration    1(   2)  ---------------------------------------


     EDDAV:  cpu time    6.5921: real time    6.5921
       DOS:  cpu time    0.0009: real time    0.0009
    --------------------------------------------
      LOOP:  cpu time    6.5944: real time    6.6000

 eigenvalue-minimisations  :  2880
 total energy-change (2. order) :-0.5038467E+04  (-0.4885559E+04)
 number of electron     458.0000000 magnetization 
 augmentation part      458.0000000 magnetization 

 Free energy of the ion-electron system (eV)
  ---------------------------------------------------
  alpha Z        PSCENC =       731.07203600
  Ewald energy   TEWEN  =    112873.73091591
  -Hartree energ DENC   =   -138347.63812542
  -exchange      EXHF   =         0.00000000
  -V(xc)+E(xc)   XCENC  =     -2557.18818961
  PAW double counting   =     26023.72118408   -21966.66214748
  entropy T*S    EENTRO =         0.00420113
  eigenvalues    EBANDS =     -4210.11548057
  atomic energy  EATOM  =     28340.88018857
  Solvation  Ediel_sol  =         0.00000000
  ---------------------------------------------------
  free energy    TOTEN  =       887.80458260 eV

  energy without entropy =      887.80038148  energy(sigma->0) =      887.80353232


--------------------------------------------------------------------------------------------------------




----------------------------------------- Iteration    1(   3)  ---------------------------------------


     EDDAV:  cpu time   10.2455: real time   10.2456
       DOS:  cpu time    0.0009: real time    0.0009
    --------------------------------------------
      LOOP:  cpu time   10.2475: real time   10.2535

 eigenvalue-minimisations  :  5016
 total energy-change (2. order) :-0.1452869E+04  (-0.1407513E+04)
 number of electron     458.0000000 magnetization 
 augmentation part      458.0000000 magnetization 

 Free energy of the ion-electron system (eV)
  ---------------------------------------------------
  alpha Z        PSCENC =       731.07203600
  Ewald energy   TEWEN  =    112873.73091591
  -Hartree energ DENC   =   -138347.63812542
  -exchange      EXHF   =         0.00000000
  -V(xc)+E(xc)   XCENC  =     -2557.18818961
  PAW double counting   =     26023.72118408   -21966.66214748
  entropy T*S    EENTRO =        -0.00749636
  eigenvalues    EBANDS =     -5662.97301503
  atomic energy  EATOM  =     28340.88018857
  Solvation  Ediel_sol  =         0.00000000
  ---------------------------------------------------
  free energy    TOTEN  =      -565.06464933 eV

  energy without entropy =     -565.05715298  energy(sigma->0) =     -565.06277524


--------------------------------------------------------------------------------------------------------




----------------------------------------- Iteration    1(   4)  ---------------------------------------


     EDDAV:  cpu time    8.8752: real time    8.8752
       DOS:  cpu time    0.0010: real time    0.0010
    --------------------------------------------
      LOOP:  cpu time    8.8773: real time    8.8836

 eigenvalue-minimisations  :  4216
 total energy-change (2. order) :-0.2181634E+03  (-0.2119153E+03)
 number of electron     458.0000000 magnetization 
 augmentation part      458.0000000 magnetization 

 Free energy of the ion-electron system (eV)
  ---------------------------------------------------
  alpha Z        PSCENC =       731.07203600
  Ewald energy   TEWEN  =    112873.73091591
  -Hartree energ DENC   =   -138347.63812542
  -exchange      EXHF   =         0.00000000
  -V(xc)+E(xc)   XCENC  =     -2557.18818961
  PAW double counting   =     26023.72118408   -21966.66214748
  entropy T*S    EENTRO =        -0.00432140
  eigenvalues    EBANDS =     -5881.13962721
  atomic energy  EATOM  =     28340.88018857
  Solvation  Ediel_sol  =         0.00000000
  ---------------------------------------------------
  free energy    TOTEN  =      -783.22808656 eV

  energy without entropy =     -783.22376516  energy(sigma->0) =     -783.22700621


--------------------------------------------------------------------------------------------------------




----------------------------------------- Iteration    1(   5)  ---------------------------------------


     EDDAV:  cpu time   10.3601: real time   10.3602
       DOS:  cpu time    0.0010: real time    0.0010
    CHARGE:  cpu time    0.1998: real time    0.2006
    MIXING:  cpu time    0.0052: real time    0.0052
    --------------------------------------------
      LOOP:  cpu time   10.5673: real time   10.5739

 eigenvalue-minimisations  :  5088
 total energy-change (2. order) :-0.1785966E+02  (-0.1744622E+02)
 number of electron     457.9999970 magnetization 
 augmentation part       54.7789682 magnetization 

 Broyden mixing:
  rms(total) = 0.81882E+01    rms(broyden)= 0.81881E+01
  rms(prec ) = 0.86257E+01
  weight for this iteration     100.00

 Free energy of the ion-electron system (eV)
  ---------------------------------------------------
  alpha Z        PSCENC =       731.07203600
  Ewald energy   TEWEN  =    112873.73091591
  -Hartree energ DENC   =   -138347.63812542
  -exchange      EXHF   =         0.00000000
  -V(xc)+E(xc)   XCENC  =     -2557.18818961
  PAW double counting   =     26023.72118408   -21966.66214748
  entropy T*S    EENTRO =         0.00347607
  eigenvalues    EBANDS =     -5899.00708151
  atomic energy  EATOM  =     28340.88018857
  Solvation  Ediel_sol  =         0.00000000
  ---------------------------------------------------
  free energy    TOTEN  =      -801.08774339 eV

  energy without entropy =     -801.09121946  energy(sigma->0) =     -801.08861241


--------------------------------------------------------------------------------------------------------




----------------------------------------- Iteration    1(   6)  ---------------------------------------


    POTLOK:  cpu time    0.0501: real time    0.0501
    SETDIJ:  cpu time    0.0072: real time    0.0072
    EDDIAG:  cpu time    1.0155: real time    1.0174
  RMM-DIIS:  cpu time    5.0997: real time    5.0998
    ORTHCH:  cpu time    0.3090: real time    0.3090
       DOS:  cpu time    0.0010: real time    0.0010
    CHARGE:  cpu time    0.1946: real time    0.1946
    MIXING:  cpu time    0.0031: real time    0.0031
    --------------------------------------------
      LOOP:  cpu time    6.6817: real time    6.6898

 eigenvalue-minimisations  :  4545
 total energy-change (2. order) :-0.2728396E+02  (-0.1579173E+03)
 number of electron     457.9999976 magnetization 
 augmentation part       68.5787107 magnetization 

 Broyden mixing:
  rms(total) = 0.50077E+01    rms(broyden)= 0.50073E+01
  rms(prec ) = 0.66311E+01
  weight for this iteration     100.00

 eigenvalues of (default mixing * dielectric matrix)
  average eigenvalue GAMMA=   0.7852
  0.7852

 Free energy of the ion-electron system (eV)
  ---------------------------------------------------
  alpha Z        PSCENC =       731.07203600
  Ewald energy   TEWEN  =    112873.73091591
  -Hartree energ DENC   =   -139306.01503497
  -exchange      EXHF   =         0.00000000
  -V(xc)+E(xc)   XCENC  =     -2519.15173408
  PAW double counting   =     30885.45973214   -26838.76626703
  entropy T*S    EENTRO =        -0.00780781
  eigenvalues    EBANDS =     -4995.57373197
  atomic energy  EATOM  =     28340.88018857
  Solvation  Ediel_sol  =         0.00000000
  ---------------------------------------------------
  free energy    TOTEN  =      -828.37170324 eV

  energy without entropy =     -828.36389544  energy(sigma->0) =     -828.36975129


--------------------------------------------------------------------------------------------------------




----------------------------------------- Iteration    1(   7)  ---------------------------------------


    POTLOK:  cpu time    0.0500: real time    0.0500
    SETDIJ:  cpu time    0.0071: real time    0.0071
    EDDIAG:  cpu time    1.0002: real time    1.0012
  RMM-DIIS:  cpu time    4.6890: real time    4.6891
    ORTHCH:  cpu time    0.3122: real time    0.3122
       DOS:  cpu time    0.0009: real time    0.0009
    CHARGE:  cpu time    0.2014: real time    0.2014
    MIXING:  cpu time    0.0024: real time    0.0024
    --------------------------------------------
      LOOP:  cpu time    6.2647: real time    6.2720

 eigenvalue-minimisations  :  4152
 total energy-change (2. order) :-0.5674030E+01  (-0.4045941E+02)
 number of electron     457.9999979 magnetization 
 augmentation part       67.1672094 magnetization 

 Broyden mixing:
  rms(total) = 0.45702E+01    rms(broyden)= 0.45701E+01
  rms(prec ) = 0.79859E+01
  weight for this iteration     100.00

 eigenvalues of (default mixing * dielectric matrix)
  average eigenvalue GAMMA=   0.6760
  1.0014  0.3506

 Free energy of the ion-electron system (eV)
  ---------------------------------------------------
  alpha Z        PSCENC =       731.07203600
  Ewald energy   TEWEN  =    112873.73091591
  -Hartree energ DENC   =   -138578.04909347
  -exchange      EXHF   =         0.00000000
  -V(xc)+E(xc)   XCENC  =     -2524.37161626
  PAW double counting   =     31698.72483363   -27663.32775790
  entropy T*S    EENTRO =         0.00604860
  eigenvalues    EBANDS =     -5712.71128868
  atomic energy  EATOM  =     28340.88018857
  Solvation  Ediel_sol  =         0.00000000
  ---------------------------------------------------
  free energy    TOTEN  =      -834.04573360 eV

  energy without entropy =     -834.05178220  energy(sigma->0) =     -834.04724575


--------------------------------------------------------------------------------------------------------




----------------------------------------- Iteration    1(   8)  ---------------------------------------


    POTLOK:  cpu time    0.0510: real time    0.0510
    SETDIJ:  cpu time    0.0072: real time    0.0072
    EDDIAG:  cpu time    1.0188: real time    1.0188
  RMM-DIIS:  cpu time    5.0798: real time    5.0798
    ORTHCH:  cpu time    0.3111: real time    0.3111
       DOS:  cpu time    0.0010: real time    0.0010
    CHARGE:  cpu time    0.1905: real time    0.1905
    MIXING:  cpu time    0.0019: real time    0.0019
    --------------------------------------------
      LOOP:  cpu time    6.6631: real time    6.6697

 eigenvalue-minimisations  :  4443
 total energy-change (2. order) : 0.9056941E+02  (-0.2318506E+02)
 number of electron     457.9999984 magnetization 
 augmentation part       55.8412713 magnetization 

 Broyden mixing:
  rms(total) = 0.35208E+01    rms(broyden)= 0.35208E+01
  rms(prec ) = 0.49013E+01
  weight for this iteration     100.00

 eigenvalues of (default mixing * dielectric matrix)
  average eigenvalue GAMMA=   0.6522
  1.2953  0.4323  0.2292

 Free energy of the ion-electron system (eV)
  ---------------------------------------------------
  alpha Z        PSCENC =       731.07203600
  Ewald energy   TEWEN  =    112873.73091591
  -Hartree energ DENC   =   -138995.53239633
  -exchange      EXHF   =         0.00000000
  -V(xc)+E(xc)   XCENC  =     -2526.29539682
  PAW double counting   =     32682.82431398   -28652.19798238
  entropy T*S    EENTRO =        -0.00736839
  eigenvalues    EBANDS =     -5197.95063319
  atomic energy  EATOM  =     28340.88018857
  Solvation  Ediel_sol  =         0.00000000
  ---------------------------------------------------
  free energy    TOTEN  =      -743.47632265 eV

  energy without entropy =     -743.46895425  energy(sigma->0) =     -743.47448055


--------------------------------------------------------------------------------------------------------




----------------------------------------- Iteration    1(   9)  ---------------------------------------


    POTLOK:  cpu time    0.0498: real time    0.0498
    SETDIJ:  cpu time    0.0073: real time    0.0073
    EDDIAG:  cpu time    1.0344: real time    1.0344
  RMM-DIIS:  cpu time    4.3097: real time    4.3097
    ORTHCH:  cpu time    0.3099: real time    0.3099
       DOS:  cpu time    0.0010: real time    0.0010
    CHARGE:  cpu time    0.1964: real time    0.1964
    MIXING:  cpu time    0.0020: real time    0.0020
    --------------------------------------------
      LOOP:  cpu time    5.9121: real time    5.9185

 eigenvalue-minimisations  :  3774
 total energy-change (2. order) : 0.3938681E+02  (-0.6586249E+01)
 number of electron     457.9999978 magnetization 
 augmentation part       57.5622060 magnetization 

 Broyden mixing:
  rms(total) = 0.20709E+01    rms(broyden)= 0.20709E+01
  rms(prec ) = 0.23865E+01
  weight for this iteration     100.00

 eigenvalues of (default mixing * dielectric matrix)
  average eigenvalue GAMMA=   0.7357
  1.6788  0.5237  0.5237  0.2166

 Free energy of the ion-electron system (eV)
  ---------------------------------------------------
  alpha Z        PSCENC =       731.07203600
  Ewald energy   TEWEN  =    112873.73091591
  -Hartree energ DENC   =   -138949.77115357
  -exchange      EXHF   =         0.00000000
  -V(xc)+E(xc)   XCENC  =     -2523.50891560
  PAW double counting   =     33805.57970906   -29767.90321294
  entropy T*S    EENTRO =        -0.00293851
  eigenvalues    EBANDS =     -5214.16613761
  atomic energy  EATOM  =     28340.88018857
  Solvation  Ediel_sol  =         0.00000000
  ---------------------------------------------------
  free energy    TOTEN  =      -704.08950870 eV

  energy without entropy =     -704.08657019  energy(sigma->0) =     -704.08877407


--------------------------------------------------------------------------------------------------------




----------------------------------------- Iteration    1(  10)  ---------------------------------------


    POTLOK:  cpu time    0.0502: real time    0.0502
    SETDIJ:  cpu time    0.0072: real time    0.0072
    EDDIAG:  cpu time    1.0299: real time    1.0299
  RMM-DIIS:  cpu time    4.7738: real time    4.7738
    ORTHCH:  cpu time    0.3109: real time    0.3109
       DOS:  cpu time    0.0010: real time    0.0010
    CHARGE:  cpu time    0.1936: real time    0.1936
    MIXING:  cpu time    0.0021: real time    0.0021
    --------------------------------------------
      LOOP:  cpu time    6.3703: real time    6.3765

 eigenvalue-minimisations  :  4213
 total energy-change (2. order) : 0.3566615E+01  (-0.6523284E+01)
 number of electron     457.9999979 magnetization 
 augmentation part       62.2833614 magnetization 

 Broyden mixing:
  rms(total) = 0.14340E+01    rms(broyden)= 0.14340E+01
  rms(prec ) = 0.19639E+01
  weight for this iteration     100.00

 eigenvalues of (default mixing * dielectric matrix)
  average eigenvalue GAMMA=   0.7304
  1.9296  0.5993  0.5993  0.3227  0.2013

 Free energy of the ion-electron system (eV)
[...]
   -.713E+01 -.193E+02 0.140E+02   0.680E+01 0.196E+02 -.152E+02   0.326E+00 -.314E+00 0.121E+01   0.482E-03 -.322E-03 -.170E-02
   0.742E+02 0.452E+02 -.214E+03   -.763E+02 -.426E+02 0.213E+03   0.216E+01 -.261E+01 0.111E+01   0.862E-03 0.873E-04 -.985E-03
   0.140E+02 0.529E+01 0.301E+03   -.137E+02 -.509E+01 -.301E+03   -.391E+00 -.235E+00 -.127E+00   0.611E-04 0.684E-03 0.235E-04
   -.204E+02 0.308E+01 0.509E+02   0.161E+02 -.257E+01 -.519E+02   0.434E+01 -.510E+00 0.108E+01   0.240E-03 -.563E-03 -.774E-03
   -.445E+02 0.475E+01 0.424E+03   0.438E+02 -.412E+01 -.421E+03   0.669E+00 -.101E+01 -.230E+01   -.216E-04 0.144E-03 0.998E-03
   -.317E+03 -.104E+02 0.979E+03   0.317E+03 0.109E+02 -.981E+03   0.404E+00 -.259E+00 0.111E+01   0.782E-03 0.807E-03 -.403E-02
   -.181E+03 -.409E+02 -.129E+04   0.178E+03 0.423E+02 0.129E+04   0.249E+01 -.140E+01 0.128E+01   0.124E-02 -.171E-02 -.553E-02
   0.938E+02 -.725E+01 0.201E+04   -.934E+02 0.615E+01 -.200E+04   -.626E+00 0.610E+00 -.438E+01   0.274E-02 -.198E-02 0.107E-02
   0.173E+03 -.543E+01 0.111E+03   -.174E+03 0.521E+01 -.109E+03   0.708E+00 0.210E+00 -.157E+01   -.579E-03 0.136E-02 -.877E-02
   -.432E+02 0.141E+03 0.207E+04   0.440E+02 -.141E+03 -.207E+04   -.538E+00 -.443E+00 -.277E+01   0.150E-02 0.347E-02 0.290E-02
   0.118E+03 0.471E+02 0.194E+03   -.118E+03 -.475E+02 -.194E+03   -.428E+00 0.461E+00 -.246E+00   0.235E-02 0.101E-02 -.488E-02
   -.339E+03 0.300E+01 0.125E+04   0.340E+03 -.412E+01 -.125E+04   -.905E+00 0.137E+01 -.140E+01   -.173E-03 -.159E-02 -.265E-02
   -.162E+03 0.160E+03 -.114E+04   0.164E+03 -.162E+03 0.114E+04   -.192E+01 0.176E+01 0.524E+00   0.444E-02 0.393E-03 -.682E-02
   0.276E+03 -.123E+03 0.192E+04   -.276E+03 0.124E+03 -.192E+04   0.295E+00 -.381E+00 -.423E+01   0.468E-03 -.758E-03 0.107E-02
   0.276E+03 -.740E+02 0.110E+03   -.277E+03 0.739E+02 -.110E+03   0.374E+00 0.581E-01 -.240E+00   -.461E-02 0.557E-03 -.495E-02
   -.986E+01 0.186E+01 0.378E+03   0.958E+01 -.188E+01 -.379E+03   0.580E+00 0.193E-01 0.124E+00   0.113E-02 -.111E-02 -.178E-02
   -.102E+02 -.409E+02 -.493E+03   0.977E+01 0.404E+02 0.492E+03   0.473E+00 0.451E+00 0.973E+00   0.147E-02 0.432E-05 -.229E-02
   0.150E+03 -.215E+02 0.386E+03   -.149E+03 0.214E+02 -.387E+03   -.138E+01 0.489E+00 0.647E+00   -.235E-03 0.114E-03 -.618E-04
   0.162E+03 0.332E+01 -.468E+03   -.161E+03 -.158E+01 0.466E+03   -.936E+00 -.174E+01 0.247E+01   -.128E-02 0.841E-03 -.330E-02
   0.466E+02 -.223E+01 0.134E+03   -.448E+02 0.150E+01 -.135E+03   -.182E+01 0.729E+00 0.142E+01   -.413E-03 -.772E-03 -.930E-03
   0.110E+03 -.564E+02 0.586E+03   -.109E+03 0.565E+02 -.583E+03   -.825E+00 -.209E+00 -.273E+01   0.329E-03 0.116E-03 0.112E-02
   -.891E+02 0.682E+02 0.890E+02   0.896E+02 -.674E+02 -.907E+02   -.526E+00 -.836E+00 0.167E+01   0.491E-03 -.493E-03 -.132E-02
   -.927E+02 0.598E+02 0.641E+03   0.922E+02 -.593E+02 -.638E+03   0.406E+00 -.542E+00 -.281E+01   -.206E-03 0.838E-03 0.118E-02
   0.665E+02 -.242E+02 0.318E+03   -.674E+02 0.235E+02 -.317E+03   0.862E+00 0.101E+01 -.691E+00   0.735E-04 0.357E-03 -.953E-03
   0.377E+02 -.137E+02 -.380E+03   -.384E+02 0.137E+02 0.380E+03   0.681E+00 0.627E-02 0.201E+00   -.464E-03 0.604E-03 -.199E-02
   -.149E+03 0.646E+01 -.314E+03   0.149E+03 -.784E+01 0.312E+03   -.259E+00 0.139E+01 0.133E+01   0.210E-03 -.530E-03 -.163E-02
   -.141E+03 0.642E+01 0.375E+03   0.141E+03 -.642E+01 -.376E+03   0.342E+00 -.234E+00 0.559E+00   0.242E-03 0.103E-02 -.368E-03
   -.143E+03 -.592E+01 0.608E+03   0.141E+03 0.588E+01 -.605E+03   0.805E+00 -.493E-01 -.257E+01   -.576E-03 0.543E-03 0.150E-02
   -.160E+03 0.322E+02 0.709E+02   0.159E+03 -.329E+02 -.727E+02   0.137E+01 0.782E+00 0.187E+01   -.427E-04 -.540E-03 -.117E-02
   0.846E+02 0.127E+02 0.319E+03   -.847E+02 -.123E+02 -.319E+03   -.989E-02 -.193E+00 -.299E-01   0.510E-03 -.287E-03 -.900E-03
   0.104E+03 0.221E+02 -.384E+03   -.103E+03 -.214E+02 0.383E+03   -.937E+00 -.719E+00 0.931E+00   0.982E-03 -.655E-03 -.165E-02
   0.610E+02 0.118E+02 0.539E+02   -.612E+02 -.115E+02 -.542E+02   0.196E+00 -.241E+00 0.298E+00   -.490E-03 -.597E-03 -.149E-02
   0.336E+02 -.158E+01 0.613E+03   -.342E+02 0.155E+01 -.611E+03   0.646E+00 -.844E-02 -.247E+01   0.638E-04 0.619E-03 0.832E-03
   0.112E+03 0.168E+02 0.324E+03   -.111E+03 -.170E+02 -.324E+03   -.783E+00 0.614E+00 -.301E+00   -.322E-03 -.671E-03 -.132E-03
   0.884E+02 0.112E+02 -.417E+03   -.869E+02 -.973E+01 0.416E+03   -.156E+01 -.146E+01 0.130E+01   -.858E-03 0.579E-03 -.207E-02
   0.101E+03 0.234E+02 0.355E+03   -.101E+03 -.231E+02 -.355E+03   0.977E-01 -.516E+00 -.816E+00   0.158E-04 -.314E-04 0.290E-03
   0.766E+02 -.493E+02 -.406E+03   -.783E+02 0.493E+02 0.405E+03   0.170E+01 -.144E-03 0.109E+01   -.105E-02 -.479E-03 -.205E-02
   0.118E+03 0.400E+02 0.559E+03   -.118E+03 -.397E+02 -.556E+03   0.160E+00 -.528E+00 -.286E+01   0.145E-03 -.384E-04 0.681E-03
   0.117E+03 0.322E+02 0.646E+02   -.117E+03 -.315E+02 -.651E+02   0.851E-01 -.746E+00 0.569E+00   -.315E-03 0.731E-03 -.182E-02
   -.921E+02 -.887E+00 0.613E+03   0.923E+02 0.915E+00 -.609E+03   -.425E+00 -.549E-02 -.296E+01   -.139E-04 -.497E-03 0.918E-03
   -.859E+02 -.384E+02 0.655E+02   0.855E+02 0.397E+02 -.656E+02   0.440E+00 -.132E+01 0.826E-01   0.104E-03 0.464E-03 -.153E-02
   0.123E+03 0.309E+02 0.574E+03   -.123E+03 -.312E+02 -.571E+03   -.274E+00 0.356E+00 -.257E+01   0.629E-03 0.747E-04 0.717E-03
   0.873E+02 -.684E+01 0.664E+02   -.863E+02 0.746E+01 -.676E+02   -.960E+00 -.626E+00 0.123E+01   -.896E-03 -.189E-04 -.202E-02
   0.307E+02 -.430E+01 -.391E+03   -.302E+02 0.231E+01 0.389E+03   -.484E+00 0.199E+01 0.162E+01   -.109E-02 -.691E-03 -.184E-02
   0.107E+03 -.104E+02 0.353E+03   -.107E+03 0.101E+02 -.353E+03   0.537E+00 0.418E+00 -.154E+00   -.446E-04 0.577E-03 0.407E-04
   0.349E+02 0.390E+01 0.371E+03   -.349E+02 -.398E+01 -.372E+03   0.994E-03 0.151E+00 0.622E+00   -.419E-04 -.440E-03 0.146E-03
   -.267E+02 0.268E+02 -.405E+03   0.260E+02 -.272E+02 0.403E+03   0.641E+00 0.429E+00 0.217E+01   0.316E-04 0.714E-03 -.181E-02
   -.376E+02 -.626E-01 0.570E+03   0.379E+02 0.400E+00 -.566E+03   -.649E-01 -.275E+00 -.304E+01   -.479E-03 -.169E-03 0.105E-02
   -.113E+03 0.297E+02 0.129E+03   0.113E+03 -.301E+02 -.129E+03   0.335E+00 0.422E+00 0.147E+00   0.500E-03 0.596E-03 -.161E-02
   0.484E+02 -.526E+01 0.552E+03   -.483E+02 0.451E+01 -.549E+03   -.513E-01 0.203E+00 -.313E+01   -.300E-03 0.797E-05 0.958E-03
   0.202E+01 0.373E+02 0.345E+02   -.118E+01 -.377E+02 -.339E+02   -.836E+00 0.381E+00 -.527E+00   0.439E-03 0.315E-03 -.114E-02
   -.660E+02 -.346E+01 0.360E+03   0.662E+02 0.352E+01 -.361E+03   -.102E+00 0.720E+00 -.121E+00   -.379E-03 -.605E-04 -.712E-04
   -.450E+02 -.660E+02 -.431E+03   0.467E+02 0.656E+02 0.428E+03   -.166E+01 0.479E+00 0.238E+01   0.140E-03 -.572E-03 -.160E-02
   0.357E+02 0.295E+01 0.563E+03   -.351E+02 -.283E+01 -.559E+03   -.811E+00 -.294E+00 -.331E+01   -.288E-03 -.773E-06 0.123E-02
   0.502E+02 -.789E+02 0.647E+02   -.502E+02 0.796E+02 -.647E+02   -.757E-01 -.709E+00 0.525E-01   0.774E-04 -.358E-03 -.126E-02
   -.892E+02 0.164E+01 0.336E+03   0.888E+02 -.163E+01 -.335E+03   0.543E+00 -.290E+00 -.146E+01   0.963E-04 0.126E-03 -.763E-03
   -.119E+03 0.158E+01 -.476E+03   0.116E+03 -.205E+01 0.474E+03   0.240E+01 0.470E+00 0.152E+01   0.156E-03 0.395E-03 -.168E-02
   0.451E+02 0.506E+02 -.363E+03   -.445E+02 -.505E+02 0.364E+03   -.599E+00 -.841E-01 -.648E+00   -.344E-03 -.577E-03 -.207E-02
   0.347E+02 -.671E+01 0.351E+03   -.340E+02 0.659E+01 -.351E+03   -.389E+00 0.259E+00 -.364E+00   -.143E-03 0.447E-03 0.847E-04
   -.135E+03 -.429E+02 0.636E+03   0.134E+03 0.423E+02 -.633E+03   0.883E+00 0.250E-01 -.337E+01   -.360E-03 -.671E-03 0.910E-03
   -.533E+02 -.506E+02 0.577E+02   0.533E+02 0.502E+02 -.573E+02   0.369E-01 0.403E+00 -.396E+00   -.601E-04 0.675E-03 -.202E-02
   -.135E+03 0.578E+01 0.348E+03   0.134E+03 -.595E+01 -.349E+03   0.367E+00 0.468E+00 -.161E+00   -.204E-03 -.793E-03 -.534E-03
   -.102E+03 -.287E+02 -.458E+03   0.101E+03 0.295E+02 0.456E+03   0.131E+01 -.863E+00 0.123E+01   0.169E-03 0.538E-03 -.134E-02
   0.994E+02 0.302E+02 -.663E+03   -.100E+03 -.315E+02 0.668E+03   0.987E+00 0.134E+01 -.518E+01   -.188E-02 -.203E-02 -.286E-02
   -.105E+03 0.362E+02 -.964E+03   0.106E+03 -.401E+02 0.980E+03   -.549E+00 0.397E+01 -.160E+02   0.315E-03 0.158E-02 -.230E-02
   0.154E+03 0.561E+01 -.634E+03   -.154E+03 -.628E+01 0.639E+03   -.665E-01 0.662E+00 -.474E+01   -.264E-02 0.254E-02 -.355E-02
   -.946E+02 0.986E+01 -.825E+03   0.945E+02 -.865E+01 0.838E+03   0.540E-01 -.120E+01 -.125E+02   0.136E-03 -.883E-03 -.301E-02
   0.819E+02 0.701E+01 -.904E+03   -.815E+02 -.378E+01 0.923E+03   -.379E+00 -.323E+01 -.195E+02   -.947E-03 -.118E-02 -.358E-02
   0.103E+03 -.122E+02 -.974E+03   -.102E+03 0.126E+02 0.994E+03   -.100E+01 -.374E+00 -.203E+02   -.372E-02 0.182E-02 -.770E-03
   -.103E+03 -.137E+03 -.108E+04   0.104E+03 0.136E+03 0.110E+04   -.154E+01 0.143E+01 -.214E+02   0.434E-03 -.191E-02 -.224E-02
   0.826E+02 -.366E+01 -.104E+04   -.845E+02 0.464E+01 0.106E+04   0.187E+01 -.985E+00 -.219E+02   0.158E-02 0.184E-03 0.110E-02
   0.247E+02 -.350E+02 -.967E+03   -.226E+02 0.309E+02 0.987E+03   -.214E+01 0.405E+01 -.193E+02   -.112E-02 -.120E-02 -.185E-02
   0.899E+02 0.202E+02 -.973E+03   -.924E+02 -.152E+02 0.991E+03   0.243E+01 -.506E+01 -.182E+02   0.382E-02 0.614E-03 -.885E-03
   0.959E+02 -.258E+02 -.909E+03   -.964E+02 0.272E+02 0.930E+03   0.439E+00 -.142E+01 -.212E+02   -.220E-03 0.205E-02 -.397E-03
   -.173E+03 -.209E+02 -.107E+04   0.169E+03 0.257E+02 0.109E+04   0.394E+01 -.481E+01 -.193E+02   0.333E-03 -.753E-03 -.304E-02
   -.316E+03 -.372E+02 -.602E+03   0.319E+03 0.404E+02 0.606E+03   -.321E+01 -.326E+01 -.404E+01   -.120E-02 -.135E-02 -.134E-02
   0.161E+03 0.673E+02 -.108E+04   -.162E+03 -.708E+02 0.110E+04   0.126E+01 0.349E+01 -.244E+02   0.345E-02 -.923E-03 -.133E-02
   -.345E+02 0.841E+02 -.496E+03   0.373E+02 -.879E+02 0.502E+03   -.280E+01 0.375E+01 -.599E+01   0.117E-02 0.977E-03 -.213E-02
   0.695E+02 -.276E+02 -.215E+03   -.687E+02 0.283E+02 0.214E+03   -.870E+00 -.710E+00 0.140E+01   -.102E-02 -.219E-02 -.433E-02
   -.115E+03 -.151E+02 -.204E+03   0.112E+03 0.148E+02 0.204E+03   0.299E+01 0.275E+00 -.501E+00   0.276E-03 0.133E-02 -.197E-02
   0.812E+02 0.126E+02 0.863E+02   -.818E+02 -.116E+02 -.859E+02   0.607E+00 -.105E+01 -.452E+00   0.859E-03 -.141E-03 -.154E-02
   -.151E+03 -.275E+02 -.267E+02   0.152E+03 0.282E+02 0.236E+02   -.782E+00 -.676E+00 0.308E+01   0.436E-03 0.199E-02 -.237E-02
 -----------------------------------------------------------------------------------------------
   -.845E+01 0.622E+01 0.253E+03   0.711E-12 -.274E-12 -.285E-11   0.846E+01 -.622E+01 -.253E+03   0.695E-02 0.167E-02 -.109E+00
 
 
 POSITION                                       TOTAL-FORCE (eV/Angst)
 -----------------------------------------------------------------------------------
      8.57631      8.29685     10.39845        -0.067423     -0.167223      0.011482
      8.45869      3.85859     15.11915        -0.002078     -0.002226      0.002485
      8.12634      6.01434     17.24961        -0.001932      0.000759      0.002461
      8.51616      0.79995     12.43874        -0.134652     -0.042365      0.042504
     13.36506      6.06575     15.08741        -0.004205     -0.001178     -0.000163
     13.49094      1.15316     10.44749        -0.053366     -0.374223     -0.010937
     10.03344      3.28428     12.67411         0.095959      0.335163     -0.404412
     10.00191      8.07543     17.49165        -0.003584     -0.000246      0.001486
      7.12524      5.81577     10.15765        -0.217732     -0.487836      0.893027
      6.96718      1.30401     15.16137        -0.000452     -0.005511      0.004268
      8.51222      3.28036     10.20450         0.219365      0.102869      0.766809
      8.54391      8.35285     14.99455        -0.003592     -0.003124      0.004080
     10.22263      8.06723     12.77991         0.356388      0.256091      0.041716
     10.22226      3.75401     17.51187        -0.005091      0.000168      0.001270
      5.42664      8.10481     10.20639         0.253578      0.106352      0.957961
      5.32016      3.61409     15.14833        -0.000424     -0.003558      0.002112
      8.52843      5.75423     12.65640         0.298299     -0.002169      0.074193
      8.70726      1.16328     17.59828        -0.001244     -0.008638      0.004384
      3.84829      7.97317     12.47259        -0.408258      0.377963     -0.392358
      3.72430      3.36400     17.47285         0.001348      0.000765      0.003041
      3.79012      5.70998     14.76899         0.000960     -0.003292      0.001055
      3.90063      0.73891     10.00000         0.505263     -0.134757      0.344511
     10.20618      6.03581     15.12127        -0.005729     -0.000941     -0.001133
     10.19112      1.10470     10.13736        -0.170024     -0.015036      0.385852
      6.82945      7.99424     12.66670        -0.047621      0.368284     -0.332271
      6.83994      3.52205     17.58468        -0.003177      0.000108      0.000376
     11.98454      6.19600     17.39785        -0.000554      0.000985     -0.001971
     11.66772      1.05372     12.57547        -0.328265     -0.235652     -0.692736
     11.73919      3.33868     10.41199        -0.216794     -0.082335      0.640876
     11.82995      8.40063     15.25834         0.001983      0.002022     -0.001704
      7.18522      3.24644     12.75390        -0.156270      0.197844     -0.263645
      7.23712      8.49510     17.47965        -0.002773      0.000301      0.008121
      6.82848      6.08264     14.83680        -0.000427     -0.002088     -0.002021
      6.87795      0.97560     10.08695        -0.046446     -0.041994      0.255466
      5.51084      5.55012     12.48419        -0.149034      0.370860     -0.430077
      5.52559      0.98142     17.63575        -0.001743     -0.000669      0.004681
      3.51249      3.50019     12.83519         0.051244     -0.166047     -0.317268
      3.20164      8.74826     17.61464        -0.004104      0.001810      0.000334
      3.46798      5.87237     10.40868         0.024509     -0.268420     -0.115197
      3.57174      1.30566     15.19546        -0.000319     -0.001600      0.003014
     11.91771      8.21633     10.24534        -0.274813      0.022557      0.801200
     11.98333      3.46475     15.23068        -0.002668     -0.007859      0.003930
      5.24135      3.36543     10.32679         0.149136      0.056256      0.108893
      5.15105      8.34534     15.17012        -0.001189     -0.001659     -0.000167
      5.21980      6.19240     17.45862        -0.001164      0.001234     -0.000125
      5.28930      0.99064     12.60849         0.307456      0.083763     -0.296435
      1.60538      5.84491     12.85122         0.048328      0.077956     -0.538334
      1.36751      1.50097     17.60967        -0.000277      0.004525      0.008877
     13.72038      5.67134     10.18293         0.233231      0.062415      0.459944
      0.12411      1.03148     14.83582         0.004043      0.000441      0.005023
      1.63456      8.33987     10.36453         0.051911     -0.547946      0.143024
      1.65424      3.70093     15.31012         0.001195      0.000277      0.003444
     13.76831      3.16119     12.53308         0.051250      0.785560     -0.551545
      0.37489      8.22483     17.85707         0.000270      0.002120     -0.003811
      1.99440      3.17314     10.17666        -0.192979     -0.170350      0.629795
      1.84141      8.15084     15.17002         0.000681     -0.003035     -0.002554
     13.48051      8.37930     12.86886         0.176314     -0.281489     -1.236130
     13.34291      3.93468     18.03240        -0.000679      0.001958     -0.002018
      1.99673      5.91429     17.41964        -0.001128      0.000422     -0.000008
      2.02729      0.87737     12.46815         0.287397      0.137893     -0.570228
     10.07171      5.79402     10.14663         0.167364     -0.599595      0.186611
      9.89778      1.31121     14.99766        -0.003437     -0.004209     -0.000279
     11.97051      5.66181     12.67660        -0.735143      0.301867     -0.663022
     11.82552      1.12542     17.71601        -0.001118     -0.002691      0.003163
      5.22725      8.43918     17.57164        -0.004266     -0.000756      0.003856
     13.44756      1.98687     18.82933        -0.004296      0.006476      0.001585
      3.49252      1.19810     17.61997        -0.000844     -0.001248      0.000879
      0.04731      6.06190     18.35439        -0.002329      0.004139     -0.001507
      3.70448      5.12249     18.43676         0.000712      0.000548      0.001264
      5.36991      2.77138     18.53427        -0.001150     -0.001852      0.005888
     10.17839      0.19565     18.65391        -0.001447     -0.001933      0.002956
      7.09147      0.53960     18.68220        -0.002267     -0.000082      0.007203
      2.22310      7.62374     18.78536        -0.001642     -0.000702     -0.001277
      8.54803      3.04691     18.39880        -0.004201     -0.003723     -0.000287
      6.86904      5.26828     18.36979        -0.001589     -0.000985      0.001210
     11.53627      4.70373     18.70532        -0.004591      0.003483     -0.003515
     12.05839      8.34270     17.48225        -0.002732      0.001714     -0.000790
      8.37588      7.41502     18.50924        -0.001992     -0.000053      0.002737
      9.96096      5.96835     17.28319        -0.002718     -0.000305     -0.003263
      3.53896      7.10136     16.30829        -0.000612     -0.002035     -0.001340
      0.02455      2.65236     16.30375         0.001235      0.001288      0.004126
      1.67021      5.90255     15.13692         0.000097     -0.001762     -0.000552
     11.91366      0.94441     15.61473        -0.000934      0.006161     -0.000092
 -----------------------------------------------------------------------------------
    total drift:                                0.020597     -0.002721     -0.009527


--------------------------------------------------------------------------------------------------------



  FREE ENERGIE OF THE ION-ELECTRON SYSTEM (eV)
  ---------------------------------------------------
  free  energy   TOTEN  =      -694.39426827 eV

  energy  without entropy=     -694.39653854  energy(sigma->0) =     -694.39483584
 


--------------------------------------------------------------------------------------------------------


    POTLOK:  cpu time    0.0626: real time    0.0628


--------------------------------------------------------------------------------------------------------


     LOOP+:  cpu time  219.9166: real time  220.1519
    4ORBIT:  cpu time    0.0000: real time    0.0000

 total amount of memory used by VASP on root node    79581. kBytes
========================================================================

   base      :      30000. kBytes
   nonlr-proj:       8554. kBytes
   fftplans  :       3890. kBytes
   grid      :       8747. kBytes
   one-center:         62. kBytes
   wavefun   :      28328. kBytes
 
  
  
 General timing and accounting informations for this job:
 ========================================================
  
                  Total CPU time used (sec):      237.708
                            User time (sec):      233.752
                          System time (sec):        3.956
                         Elapsed time (sec):      237.910
  
                   Maximum memory used (kb):      154812.
                   Average memory used (kb):           0.
  
                          Minor page faults:        41488
                          Major page faults:            0
                 Voluntary context switches:         2601
