 vasp.5.4.1 05Feb16 (build Mar 19 2020 08:54:17) complex                        
  
 executed on           IFC91_ompi date 2021.11.11  12:05:27
 running on  192 total cores
 distrk:  each k-point on  192 cores,    1 groups
 distr:  one band on NCORES_PER_BAND=  24 cores,    8 groups


--------------------------------------------------------------------------------------------------------


 INCAR:
 POTCAR:    PAW_PBE Al 04Jan2001                  
 POTCAR:    PAW_PBE Nb_sv 25May2007               
 POTCAR:    PAW_PBE Ta 17Jan2003                  
 POTCAR:    PAW_PBE Ti 08Apr2002                  
 POTCAR:   PAW_PBE Zr 08Apr2002                   
 POTCAR:    PAW_PBE O 08Apr2002                   
 POTCAR:    PAW_PBE Al 04Jan2001                  
   VRHFIN =Al: s2p1                                                             
   LEXCH  = PE                                                                  
   EATOM  =    53.5387 eV,    3.9350 Ry                                         
                                                                                
   TITEL  = PAW_PBE Al 04Jan2001                                                
   LULTRA =        F    use ultrasoft PP ?                                      
   IUNSCR =        1    unscreen: 0-lin 1-nonlin 2-no                           
   RPACOR =    1.500    partial core radius                                     
   POMASS =   26.981; ZVAL   =    3.000    mass and valenz                      
   RCORE  =    1.900    outmost cutoff radius                                   
   RWIGS  =    2.650; RWIGS  =    1.402    wigner-seitz radius (au A)           
   ENMAX  =  240.300; ENMIN  =  180.225 eV                                      
   ICORE  =        2    local potential                                         
   LCOR   =        T    correct aug charges                                     
   LPAW   =        T    paw PP                                                  
   EAUG   =  291.052                                                            
   DEXC   =    0.000                                                            
   RMAX   =    1.939    core radius for proj-oper                               
   RAUG   =    1.300    factor for augmentation sphere                          
   RDEP   =    1.966    radius for radial grids                                 
   RDEPT  =    1.856    core radius for aug-charge                              
                                                                                
   Atomic configuration                                                         
    6 entries                                                                   
     n  l   j            E        occ.                                          
     1  0  0.50     -1511.1048   2.0000                                         
     2  0  0.50      -108.1629   2.0000                                         
     2  1  1.50       -69.6402   6.0000                                         
     3  0  0.50        -7.7528   2.0000                                         
     3  1  1.50        -2.7121   1.0000                                         
     3  2  2.50        -2.7212   0.0000                                         
   Description                                                                  
     l       E           TYP  RCUT    TYP  RCUT                                 
     0     -7.7528455     23  1.900                                             
     0     -3.3096929     23  1.900                                             
     1     -2.7120682     23  1.900                                             
     1     13.6058260     23  1.900                                             
     2     -2.7211652      7  1.900                                             
  local pseudopotential read in
  partial core-charges read in
  partial kinetic energy density read in
  atomic valenz-charges read in
  non local Contribution for L=           0  read in
    real space projection operators read in
  non local Contribution for L=           0  read in
    real space projection operators read in
  non local Contribution for L=           1  read in
    real space projection operators read in
  non local Contribution for L=           1  read in
    real space projection operators read in
    PAW grid and wavefunctions read in
 
   number of l-projection  operators is LMAX  =           4
   number of lm-projection operators is LMMAX =           8
 
 POTCAR:    PAW_PBE Nb_sv 25May2007               
   VRHFIN =Nb: 4p5s4d                                                           
   LEXCH  = PE                                                                  
   EATOM  =  1555.1913 eV,  114.3033 Ry                                         
                                                                                
   TITEL  = PAW_PBE Nb_sv 25May2007                                             
   LULTRA =        F    use ultrasoft PP ?                                      
   IUNSCR =        1    unscreen: 0-lin 1-nonlin 2-no                           
   RPACOR =    1.800    partial core radius                                     
   POMASS =   92.910; ZVAL   =   13.000    mass and valenz                      
   RCORE  =    2.400    outmost cutoff radius                                   
   RWIGS  =    2.400; RWIGS  =    1.270    wigner-seitz radius (au A)           
   ENMAX  =  293.235; ENMIN  =  219.927 eV                                      
   ICORE  =        3    local potential                                         
   LCOR   =        T    correct aug charges                                     
   LPAW   =        T    paw PP                                                  
   EAUG   =  455.659                                                            
   DEXC   =    0.000                                                            
   RMAX   =    2.456    core radius for proj-oper                               
   RAUG   =    1.300    factor for augmentation sphere                          
   RDEP   =    2.451    radius for radial grids                                 
   RDEPT  =    1.956    core radius for aug-charge                              
                                                                                
   Atomic configuration                                                         
   11 entries                                                                   
     n  l   j            E        occ.                                          
     1  0  0.50    -18805.2457   2.0000                                         
     2  0  0.50     -2630.2869   2.0000                                         
     2  1  1.50     -2348.4046   6.0000                                         
     3  0  0.50      -438.8757   2.0000                                         
     3  1  1.50      -346.7588   6.0000                                         
     3  2  2.50      -196.2560  10.0000                                         
     4  0  0.50       -58.3859   2.0000                                         
     5  0  0.50        -3.9816   1.0000                                         
     4  1  1.50       -34.5141   6.0000                                         
     4  2  2.50        -3.0408   4.0000                                         
     4  3  2.50        -1.3606   0.0000                                         
   Description                                                                  
     l       E           TYP  RCUT    TYP  RCUT                                 
     0    -58.3859094     23  2.200                                             
     0     -3.9816262     23  2.200                                             
     1    -34.5140738     23  2.200                                             
     1     13.6058260     23  2.200                                             
     2     -3.0408010     23  2.200                                             
     2     -0.1283038     23  2.200                                             
     3     -1.3605826     23  2.400                                             
  local pseudopotential read in
  partial core-charges read in
  partial kinetic energy density read in
  atomic valenz-charges read in
  non local Contribution for L=           0  read in
    real space projection operators read in
  non local Contribution for L=           0  read in
    real space projection operators read in
  non local Contribution for L=           1  read in
    real space projection operators read in
  non local Contribution for L=           1  read in
    real space projection operators read in
  non local Contribution for L=           2  read in
    real space projection operators read in
  non local Contribution for L=           2  read in
    real space projection operators read in
    PAW grid and wavefunctions read in
 
   number of l-projection  operators is LMAX  =           6
   number of lm-projection operators is LMMAX =          18
 
 POTCAR:    PAW_PBE Ta 17Jan2003                  
   VRHFIN =Ta:  6s5d                                                            
   LEXCH  = PE                                                                  
   EATOM  =   130.6506 eV,    9.6025 Ry                                         
                                                                                
   TITEL  = PAW_PBE Ta 17Jan2003                                                
   LULTRA =        F    use ultrasoft PP ?                                      
   IUNSCR =        1    unscreen: 0-lin 1-nonlin 2-no                           
   RPACOR =    2.330    partial core radius                                     
   POMASS =  180.948; ZVAL   =    5.000    mass and valenz                      
   RCORE  =    2.900    outmost cutoff radius                                   
   RWIGS  =    2.840; RWIGS  =    1.503    wigner-seitz radius (au A)           
   ENMAX  =  223.667; ENMIN  =  167.750 eV                                      
   RCLOC  =    2.205    cutoff for local pot                                    
   LCOR   =        T    correct aug charges                                     
   LPAW   =        T    paw PP                                                  
   EAUG   =  332.075                                                            
   DEXC   =    0.000                                                            
   RMAX   =    2.970    core radius for proj-oper                               
   RAUG   =    1.300    factor for augmentation sphere                          
   RDEP   =    3.060    radius for radial grids                                 
   RDEPT  =    2.354    core radius for aug-charge                              
                                                                                
   Atomic configuration                                                         
   16 entries                                                                   
     n  l   j            E        occ.                                          
     1  0  0.50    -67341.2807   2.0000                                         
     2  0  0.50    -11566.9376   2.0000                                         
     2  1  1.50    -10134.1182   6.0000                                         
     3  0  0.50     -2648.5620   2.0000                                         
     3  1  1.50     -2222.6012   6.0000                                         
     3  2  2.50     -1726.3120  10.0000                                         
     4  0  0.50      -538.6961   2.0000                                         
     4  1  1.50      -399.0129   6.0000                                         
     4  2  2.50      -220.3959  10.0000                                         
     4  3  3.50       -23.0374  14.0000                                         
     5  0  0.50       -71.2901   2.0000                                         
     5  1  1.50       -37.8225   6.0000                                         
     5  2  2.50        -2.6455   4.0000                                         
     6  0  0.50        -4.9623   1.0000                                         
     6  1  1.50        -1.3606   0.0000                                         
     5  3  2.50        -1.3606   0.0000                                         
   Description                                                                  
     l       E           TYP  RCUT    TYP  RCUT                                 
     2     -2.6455043     23  2.500                                             
     2     -0.6258895     23  2.500                                             
     0     -4.9622780     23  2.500                                             
     0      4.7531321     23  2.500                                             
     1     -1.3605826     23  2.900                                             
     1     27.2116520     23  2.900                                             
  local pseudopotential read in
  partial core-charges read in
  partial kinetic energy density read in
  atomic valenz-charges read in
  non local Contribution for L=           2  read in
    real space projection operators read in
  non local Contribution for L=           2  read in
    real space projection operators read in
  non local Contribution for L=           0  read in
    real space projection operators read in
  non local Contribution for L=           0  read in
    real space projection operators read in
  non local Contribution for L=           1  read in
    real space projection operators read in
  non local Contribution for L=           1  read in
    real space projection operators read in
    PAW grid and wavefunctions read in
 
   number of l-projection  operators is LMAX  =           6
   number of lm-projection operators is LMMAX =          18
 
 POTCAR:    PAW_PBE Ti 08Apr2002                  
   VRHFIN =Ti: d3 s1                                                            
   LEXCH  = PE                                                                  
   EATOM  =    94.7928 eV,    6.9671 Ry                                         
                                                                                
   TITEL  = PAW_PBE Ti 08Apr2002                                                
   LULTRA =        F    use ultrasoft PP ?                                      
   IUNSCR =        1    unscreen: 0-lin 1-nonlin 2-no                           
   RPACOR =    2.200    partial core radius                                     
   POMASS =   47.880; ZVAL   =    4.000    mass and valenz                      
   RCORE  =    2.800    outmost cutoff radius                                   
   RWIGS  =    2.500; RWIGS  =    1.323    wigner-seitz radius (au A)           
   ENMAX  =  178.330; ENMIN  =  133.747 eV                                      
   RCLOC  =    2.215    cutoff for local pot                                    
   LCOR   =        T    correct aug charges                                     
   LPAW   =        T    paw PP                                                  
   EAUG   =  328.883                                                            
   DEXC   =    0.000                                                            
   RMAX   =    2.868    core radius for proj-oper                               
   RAUG   =    1.300    factor for augmentation sphere                          
   RDEP   =    2.885    radius for radial grids                                 
   RDEPT  =    2.320    core radius for aug-charge                              
                                                                                
   Atomic configuration                                                         
    9 entries                                                                   
     n  l   j            E        occ.                                          
     1  0  0.50     -4865.3608   2.0000                                         
     2  0  0.50      -533.1367   2.0000                                         
     2  1  1.50      -440.5031   6.0000                                         
     3  0  0.50       -59.3186   2.0000                                         
     3  1  1.50       -35.7012   6.0000                                         
     3  2  2.50        -1.9157   3.0000                                         
     4  0  0.50        -3.7291   1.0000                                         
     4  1  1.50        -4.0817   0.0000                                         
     4  3  2.50        -1.3606   0.0000                                         
   Description                                                                  
     l       E           TYP  RCUT    TYP  RCUT                                 
     2     -1.9156924     23  2.800                                             
     2     -0.4062961     23  2.800                                             
     0     -3.7290832     23  2.800                                             
     0     20.4087390     23  2.800                                             
     1     -5.4423304     23  2.800                                             
  local pseudopotential read in
  partial core-charges read in
  partial kinetic energy density read in
  atomic valenz-charges read in
  non local Contribution for L=           2  read in
    real space projection operators read in
  non local Contribution for L=           2  read in
    real space projection operators read in
  non local Contribution for L=           0  read in
    real space projection operators read in
  non local Contribution for L=           0  read in
    real space projection operators read in
  non local Contribution for L=           1  read in
    real space projection operators read in
    PAW grid and wavefunctions read in
 
   number of l-projection  operators is LMAX  =           5
   number of lm-projection operators is LMMAX =          15
 
 POTCAR:   PAW_PBE Zr 08Apr2002                   
   VRHFIN =Zr: 5s4d5p                                                           
   LEXCH  = PE                                                                  
   EATOM  =    77.8472 eV,    5.7216 Ry                                         
                                                                                
   TITEL  = PAW_PBE Zr 08Apr2002                                                
   LULTRA =        F    use ultrasoft PP ?                                      
   IUNSCR =        1    unscreen: 0-lin 1-nonlin 2-no                           
   RPACOR =    2.200    partial core radius                                     
   POMASS =   91.224; ZVAL   =    4.000    mass and valenz                      
   RCORE  =    3.000    outmost cutoff radius                                   
   RWIGS  =    3.070; RWIGS  =    1.625    wigner-seitz radius (au A)           
   ENMAX  =  154.632; ENMIN  =  115.974 eV                                      
   RCLOC  =    2.213    cutoff for local pot                                    
   LCOR   =        T    correct aug charges                                     
   LPAW   =        T    paw PP                                                  
   EAUG   =  243.217                                                            
   DEXC   =    -.082                                                            
   RMAX   =    3.708    core radius for proj-oper                               
   RAUG   =    1.300    factor for augmentation sphere                          
   RDEP   =    3.146    radius for radial grids                                 
   QCUT   =   -3.371; QGAM   =    6.742    optimization parameters              
                                                                                
   Description                                                                  
     l     E      TYP  RCUT    TYP  RCUT                                        
     2   .000     23  3.000                                                     
     2   .000     23  3.000                                                     
     0   .000     23  3.000                                                     
     0  2.000     23  3.000                                                     
     1  -.400     23  3.000                                                     
     3   .000      7   .000                                                     
  local pseudopotential read in
  partial core-charges read in
  atomic valenz-charges read in
  non local Contribution for L=           2  read in
    real space projection operators read in
  non local Contribution for L=           2  read in
    real space projection operators read in
  non local Contribution for L=           0  read in
    real space projection operators read in
  non local Contribution for L=           0  read in
    real space projection operators read in
  non local Contribution for L=           1  read in
    real space projection operators read in
    PAW grid and wavefunctions read in
 
   number of l-projection  operators is LMAX  =           5
   number of lm-projection operators is LMMAX =          15
 
 POTCAR:    PAW_PBE O 08Apr2002                   
   VRHFIN =O: s2p4                                                              
   LEXCH  = PE                                                                  
   EATOM  =   432.3788 eV,   31.7789 Ry                                         
                                                                                
   TITEL  = PAW_PBE O 08Apr2002                                                 
   LULTRA =        F    use ultrasoft PP ?                                      
   IUNSCR =        1    unscreen: 0-lin 1-nonlin 2-no                           
   RPACOR =    1.200    partial core radius                                     
   POMASS =   16.000; ZVAL   =    6.000    mass and valenz                      
   RCORE  =    1.520    outmost cutoff radius                                   
   RWIGS  =    1.550; RWIGS  =    0.820    wigner-seitz radius (au A)           
   ENMAX  =  400.000; ENMIN  =  300.000 eV                                      
   ICORE  =        2    local potential                                         
   LCOR   =        T    correct aug charges                                     
   LPAW   =        T    paw PP                                                  
   EAUG   =  605.392                                                            
   DEXC   =    0.000                                                            
   RMAX   =    1.553    core radius for proj-oper                               
   RAUG   =    1.300    factor for augmentation sphere                          
   RDEP   =    1.550    radius for radial grids                                 
   RDEPT  =    1.329    core radius for aug-charge                              
                                                                                
   Atomic configuration                                                         
    4 entries                                                                   
     n  l   j            E        occ.                                          
     1  0  0.50      -514.6923   2.0000                                         
     2  0  0.50       -23.9615   2.0000                                         
     2  1  0.50        -9.0305   4.0000                                         
     3  2  1.50        -9.5241   0.0000                                         
   Description                                                                  
     l       E           TYP  RCUT    TYP  RCUT                                 
     0    -23.9615318     23  1.200                                             
     0     -9.5240782     23  1.200                                             
     1     -9.0304911     23  1.520                                             
     1      8.1634956     23  1.520                                             
     2     -9.5240782      7  1.500                                             
  local pseudopotential read in
  partial core-charges read in
  partial kinetic energy density read in
  kinetic energy density of atom read in
  atomic valenz-charges read in
  non local Contribution for L=           0  read in
    real space projection operators read in
  non local Contribution for L=           0  read in
    real space projection operators read in
  non local Contribution for L=           1  read in
    real space projection operators read in
  non local Contribution for L=           1  read in
    real space projection operators read in
    PAW grid and wavefunctions read in
 
   number of l-projection  operators is LMAX  =           4
   number of lm-projection operators is LMMAX =           8
 

 ----------------------------------------------------------------------------- 
|                                                                             |
|  ADVICE TO THIS USER RUNNING 'VASP/VAMP'   (HEAR YOUR MASTER'S VOICE ...):  |
|                                                                             |
|      You have a (more or less) 'large supercell' and for larger cells       |
|      it might be more efficient to use real space projection opertators     |
|      So try LREAL= Auto  in the INCAR   file.                               |
|      Mind: At the moment your POTCAR file does not contain real space       |
|       projectors, and has to be modified,  BUT if you                       |
|      want to do an extremely  accurate calculation you might also keep the  |
|      reciprocal projection scheme          (i.e. LREAL=.FALSE.)             |
|                                                                             |
 ----------------------------------------------------------------------------- 

 WARNING: PSMAXN for non-local potential too small
          PSMAXN should be >   12.5490833729506       NTYP=           5
  PAW_PBE Al 04Jan2001                  :
 energy of atom  1       EATOM=  -53.5387
 kinetic energy error for atom=    0.0002 (will be added to EATOM!!)
  PAW_PBE Nb_sv 25May2007               :
 energy of atom  2       EATOM=-1555.1913
 kinetic energy error for atom=    0.0037 (will be added to EATOM!!)
  PAW_PBE Ta 17Jan2003                  :
 energy of atom  3       EATOM= -130.6506
 kinetic energy error for atom=    0.0004 (will be added to EATOM!!)
  PAW_PBE Ti 08Apr2002                  :
 energy of atom  4       EATOM=  -94.7928
 kinetic energy error for atom=    0.0001 (will be added to EATOM!!)
 PAW_PBE Zr 08Apr2002                   :
 energy of atom  5       EATOM=  -77.8472
 kinetic energy error for atom=    0.0001 (will be added to EATOM!!)
  PAW_PBE O 08Apr2002                   :
 energy of atom  6       EATOM= -432.3788
 kinetic energy error for atom=    0.0168 (will be added to EATOM!!)
 
 
 POSCAR: Al Nb Ta Ti Zr                          
  positions in direct lattice
  velocities in cartesian coordinates
 exchange correlation table for  LEXCH =        8
   RHO(1)=    0.500       N(1)  =     2000
   RHO(2)=  100.500       N(2)  =     4000
 


--------------------------------------------------------------------------------------------------------


 ion  position               nearest neighbor table
   1  0.623  0.867  0.376-  34 2.83  25 2.88  24 2.88   9 2.88  13 2.90   4 2.91  61 2.93  15 3.16
                            41 3.35  17 3.40
   2  0.621  0.393  0.547-  31 2.78  14 2.79  33 2.80  26 2.80  23 2.81  10 2.90   7 2.90  62 2.98
                            18 3.15  16 3.17   3 3.17  17 3.18  42 3.36
   3  0.617  0.635  0.625-  32 2.84  23 2.87  33 2.87   8 2.89  14 2.89  26 2.97  27 3.04   2 3.17
                            45 3.23
   4  0.618  0.084  0.450-  31 2.80  24 2.86  34 2.87  13 2.88   1 2.91  10 2.91  25 2.92   7 2.92
                            62 2.98  28 3.16  12 3.17  46 3.24
   5  0.981  0.640  0.554-  27 2.75  30 2.80  42 2.96  56 2.96  52 3.01  59 3.03  54 3.06  63 3.10
                            47 3.12  58 3.23  57 3.34
   6  0.980  0.121  0.378-  29 2.80  28 2.80  53 2.91  41 2.96  51 3.05  55 3.05  60 3.08  57 3.37

   7  0.729  0.343  0.458-  28 2.77  29 2.83  31 2.85  17 2.89  11 2.90   2 2.90   4 2.92  62 3.04
                            63 3.07  42 3.09
   8  0.721  0.897  0.621-  30 2.64  12 2.70  18 2.78  32 2.80  27 2.87   3 2.89  64 3.01  62 3.18

   9  0.517  0.608  0.367-  35 2.84  15 2.85  17 2.87   1 2.88  11 2.89  61 2.95  43 3.10
  10  0.513  0.133  0.539-  18 2.73  36 2.77  16 2.83  12 2.87   2 2.90   4 2.91  31 2.93  46 2.93
                            62 3.06  44 3.12
  11  0.618  0.343  0.369-  24 2.75  34 2.83  31 2.87   9 2.89   7 2.90  61 2.96  43 3.27
  12  0.618  0.874  0.538-   8 2.70  32 2.72  13 2.73  25 2.81  23 2.82  10 2.87  33 2.88  62 2.93
                             4 3.17  44 3.36
  13  0.742  0.843  0.462-  12 2.73  17 2.87   4 2.88   1 2.90  28 2.94  30 2.94  23 2.95  63 2.98
                            41 3.05  57 3.27  62 3.47
  14  0.741  0.391  0.628-   2 2.79  27 2.80  42 2.84  18 2.88   3 2.89  64 2.90  58 3.01
  15  0.394  0.847  0.369-  22 2.68  19 2.76  25 2.83  34 2.84   9 2.85  39 2.98   1 3.16  46 3.43

  16  0.392  0.371  0.542-  20 2.65  21 2.66  26 2.75  10 2.83  33 2.85  37 2.87  31 2.89  40 3.06
                             2 3.17
  17  0.619  0.602  0.458-  25 2.81  23 2.81  33 2.82  31 2.85   9 2.87  13 2.87   7 2.89  61 2.95
                            35 3.03   2 3.18   1 3.40  63 3.44
  18  0.619  0.148  0.623-  10 2.73   8 2.78  26 2.78  32 2.79  62 2.82  14 2.88  36 3.07   2 3.15
                            64 3.31
  19  0.279  0.834  0.451-  15 2.76  35 2.94  46 2.96  39 2.97  25 2.99  44 3.02  60 3.07  51 3.08
                            47 3.12  56 3.17  21 3.27
  20  0.285  0.378  0.622-  16 2.65  36 2.80  45 2.87  26 2.92  59 3.01  52 3.05  48 3.05  40 3.10
                            21 3.17
  21  0.278  0.595  0.535-  16 2.66  35 2.87  52 2.95  45 2.96  37 2.97  47 2.97  44 3.02  56 3.04
                            33 3.06  59 3.09  20 3.17  19 3.27
  22  0.283  0.077  0.361-  15 2.68  46 2.97  43 2.97  34 2.99  51 3.02  55 3.10  60 3.10
  23  0.737  0.634  0.540-  27 2.70  30 2.78   2 2.81  17 2.81  12 2.82   3 2.87  63 2.93  13 2.95
                            42 3.00
  24  0.740  0.115  0.366-  29 2.73  11 2.75  28 2.85   4 2.86   1 2.88  41 3.00
  25  0.496  0.836  0.458-  35 2.78  12 2.81  17 2.81  15 2.83   1 2.88   4 2.92  19 2.99  46 2.99
                            44 3.01  33 3.02
  26  0.497  0.378  0.627-  36 2.73  16 2.75  18 2.78   2 2.80  20 2.92   3 2.97  45 2.98
  27  0.838  0.648  0.624-  23 2.70  58 2.72   5 2.75  14 2.80   8 2.87  30 2.89   3 3.04  54 3.20
                            42 3.37
  28  0.847  0.110  0.455-   7 2.77  62 2.80   6 2.80  24 2.85  57 2.90  13 2.94  53 2.98  29 3.15
                             4 3.16  50 3.25  41 3.36
  29  0.852  0.349  0.376-  24 2.73   6 2.80   7 2.83  53 2.94  61 2.98  49 3.07  28 3.15  63 3.25

  30  0.853  0.868  0.553-   8 2.64  23 2.78   5 2.80  27 2.89  54 2.91  13 2.94  57 2.97  62 3.00
                            50 3.04  64 3.41
  31  0.522  0.339  0.461-   2 2.78   4 2.80  17 2.85   7 2.85  35 2.86  11 2.87  16 2.89  10 2.93
                            46 2.95  43 3.11
  32  0.518  0.895  0.623-  12 2.72  18 2.79   8 2.80  36 2.83   3 2.84  44 2.85  45 3.04
  33  0.499  0.626  0.540-   2 2.80  17 2.82  35 2.83  16 2.85   3 2.87  12 2.88  45 2.91  44 2.95
                            25 3.02  21 3.06
  34  0.499  0.102  0.365-  11 2.83   1 2.83  15 2.84   4 2.87  43 2.91  46 2.98  22 2.99
  35  0.400  0.580  0.451-  25 2.78  33 2.83   9 2.84  31 2.86  21 2.87  37 2.88  39 2.93  19 2.94
                            17 3.03  43 3.08
  36  0.396  0.133  0.621-  26 2.73  10 2.77  20 2.80  32 2.83  40 2.87  38 3.00  18 3.07  44 3.19

  37  0.255  0.366  0.464-  16 2.87  35 2.88  21 2.97  47 3.02  60 3.04  52 3.05  43 3.05  55 3.08
                            46 3.08  40 3.27  39 3.39
  38  0.236  0.923  0.630-  65 1.86  56 2.87  40 2.98  36 3.00  44 3.00  59 3.12  48 3.19  54 3.21
                            45 3.35
  39  0.252  0.614  0.376-  35 2.93  19 2.97  15 2.98  47 3.07  43 3.07  51 3.07  55 3.08  37 3.39
                            49 3.53
  40  0.243  0.135  0.551-  36 2.87  38 2.98  52 3.02  16 3.06  48 3.08  44 3.08  20 3.10  60 3.10
                            56 3.14  37 3.27  46 3.29  50 3.43
  41  0.865  0.859  0.370-   6 2.96  24 3.00  61 3.05  13 3.05  57 3.06  49 3.12   1 3.35  28 3.36
                            51 3.49  63 3.53
  42  0.865  0.380  0.546-  14 2.84   5 2.96  62 3.00  23 3.00  58 3.03   7 3.09  50 3.12  63 3.16
                            53 3.20  64 3.33   2 3.36  27 3.37  52 3.49
  43  0.381  0.352  0.373-  34 2.91  22 2.97  37 3.05  39 3.07  35 3.08   9 3.10  31 3.11  55 3.26
                            11 3.27  46 3.29
  44  0.375  0.876  0.548-  32 2.85  33 2.95  38 3.00  25 3.01  19 3.02  21 3.02  40 3.08  10 3.12
                            45 3.14  36 3.19  56 3.25  46 3.35  12 3.36
  45  0.383  0.643  0.627-  65 2.14  20 2.87  33 2.91  21 2.96  26 2.98  32 3.04  44 3.14   3 3.23
                            59 3.25  38 3.35
  46  0.384  0.104  0.456-  10 2.93  31 2.95  19 2.96  22 2.97  34 2.98  25 2.99  37 3.08   4 3.24
                            60 3.27  40 3.29  43 3.29  44 3.35  15 3.43
  47  0.117  0.611  0.465-  21 2.97  37 3.02  39 3.07  56 3.10  19 3.12   5 3.12  52 3.14  53 3.14
                            49 3.15  57 3.17  63 3.42  51 3.52  55 3.80
  48  0.105  0.197  0.636-  50 3.03  58 3.03  20 3.05  52 3.05  40 3.08  38 3.19  54 3.34  64 3.44

  49  0.996  0.593  0.368-  63 3.05  29 3.07  41 3.12  47 3.15  51 3.16  55 3.23  53 3.44  39 3.53
                            61 3.65  57 3.82
  50  0.995  0.112  0.546-  48 3.03  30 3.04  64 3.05  42 3.12  54 3.13  57 3.19  52 3.20  28 3.25
                            56 3.27  53 3.32  60 3.38  40 3.43  62 3.58
  51  0.119  0.872  0.375-  60 3.00  22 3.02   6 3.05  39 3.07  19 3.08  57 3.16  49 3.16  41 3.49
                            47 3.52
  52  0.118  0.395  0.550-  21 2.95   5 3.01  40 3.02  59 3.04  37 3.05  20 3.05  48 3.05  47 3.14
                            53 3.20  50 3.20  58 3.45  42 3.49
  53  1.000  0.331  0.453-   6 2.91  29 2.94  28 2.98  60 3.06  63 3.08  55 3.09  47 3.14  52 3.20
                            42 3.20  50 3.32  49 3.44
  54  0.005  0.881  0.626-  30 2.91  56 3.00   5 3.06  50 3.13  59 3.15  27 3.20  64 3.20  38 3.21
                            48 3.34
  55  0.145  0.332  0.368-   6 3.05  37 3.08  39 3.08  53 3.09  22 3.10  49 3.23  60 3.24  43 3.26
                            47 3.80
  56  0.140  0.843  0.542-  38 2.87   5 2.96  54 3.00  21 3.04  57 3.09  47 3.10  59 3.13  40 3.14
                            19 3.17  44 3.25  50 3.27  60 3.47
  57  0.979  0.876  0.465-  28 2.90  30 2.97  41 3.06  56 3.09  63 3.11  60 3.13  51 3.16  47 3.17
                            50 3.19  13 3.27   5 3.34   6 3.37  49 3.82
  58  0.956  0.428  0.644-  27 2.72  14 3.01  42 3.03  48 3.03  64 3.09   5 3.23  59 3.27  52 3.45

  59  0.147  0.623  0.626-  65 2.17  20 3.01   5 3.03  52 3.04  21 3.09  38 3.12  56 3.13  54 3.15
                            45 3.25  58 3.27
  60  0.147  0.092  0.451-  51 3.00  37 3.04  53 3.06  19 3.07   6 3.08  40 3.10  22 3.10  57 3.13
                            55 3.24  46 3.27  50 3.38  56 3.47
  61  0.731  0.606  0.367-   1 2.93  17 2.95   9 2.95  11 2.96  29 2.98  41 3.05  63 3.17  49 3.65

  62  0.735  0.129  0.539-  28 2.80  18 2.82  12 2.93   2 2.98   4 2.98  42 3.00  30 3.00   7 3.04
                            10 3.06  64 3.10   8 3.18  13 3.47  50 3.58
  63  0.869  0.592  0.458-  23 2.93  13 2.98  49 3.05   7 3.07  53 3.08   5 3.10  57 3.11  42 3.16
                            61 3.17  29 3.25  47 3.42  17 3.44  41 3.53
  64  0.858  0.139  0.633-  14 2.90   8 3.01  50 3.05  58 3.09  62 3.10  54 3.20  18 3.31  42 3.33
                            30 3.41  48 3.44
  65  0.260  0.750  0.658-  38 1.86  45 2.14  59 2.17
 
  LATTYP: Found a simple orthorhombic cell.
 ALAT       =     9.5644817352
 B/A-ratio  =     1.4398428730
 C/A-ratio  =     2.8922184390
  
  Lattice vectors:
  
 A1 = (   0.0000000000,  -9.5644817352,   0.0000000000)
 A2 = ( -13.7713508606,   0.0000000000,   0.0000000000)
 A3 = (   0.0000000000,   0.0000000000, -27.6625704340)


Analysis of symmetry for initial positions (statically):
=====================================================================
 Subroutine PRICEL returns:
 Original cell was already a primitive cell.
 

 Routine SETGRP: Setting up the symmetry group for a 
 simple orthorhombic supercell.


 Subroutine GETGRP returns: Found  1 space group operations
 (whereof  1 operations were pure point group operations)
 out of a pool of  8 trial point group operations.


The static configuration has the point symmetry C_1 .


Analysis of symmetry for dynamics (positions and initial velocities):
=====================================================================
 Subroutine PRICEL returns:
 Original cell was already a primitive cell.
 

 Routine SETGRP: Setting up the symmetry group for a 
 simple orthorhombic supercell.


 Subroutine GETGRP returns: Found  1 space group operations
 (whereof  1 operations were pure point group operations)
 out of a pool of  8 trial point group operations.


The dynamic configuration has the point symmetry C_1 .


Analysis of constrained symmetry for selective dynamics:
=====================================================================
 Subroutine PRICEL returns:
 Original cell was already a primitive cell.
 

 Routine SETGRP: Setting up the symmetry group for a 
 simple orthorhombic supercell.


 Subroutine GETGRP returns: Found  1 space group operations
 (whereof  1 operations were pure point group operations)
 out of a pool of  8 trial point group operations.


The constrained configuration has the point symmetry C_1 .


 Subroutine INISYM returns: Found  1 space group operations
 (whereof  1 operations are pure point group operations),
 and found     1 'primitive' translations

 
 
 KPOINTS: k-points                                

Automatic generation of k-mesh.
Space group operators:
 irot       det(A)        alpha          n_x          n_y          n_z        tau_x        tau_y        tau_z
    1     1.000000     0.000000     1.000000     0.000000     0.000000     0.000000     0.000000     0.000000
 
 Subroutine IBZKPT returns following result:
 ===========================================
 
 Found      5 irreducible k-points:
 
 Following reciprocal coordinates:
            Coordinates               Weight
  0.000000  0.000000  0.000000      1.000000
  0.333333  0.000000  0.000000      2.000000
  0.000000  0.333333  0.000000      2.000000
  0.333333  0.333333  0.000000      2.000000
 -0.333333  0.333333  0.000000      2.000000
 
 Following cartesian coordinates:
            Coordinates               Weight
  0.000000  0.000000  0.000000      1.000000
  0.024205  0.000000  0.000000      2.000000
  0.000000  0.034851  0.000000      2.000000
  0.024205  0.034851  0.000000      2.000000
 -0.024205  0.034851  0.000000      2.000000
 


--------------------------------------------------------------------------------------------------------




 Dimension of arrays:
   k-points           NKPTS =      5   k-points in BZ     NKDIM =      5   number of bands    NBANDS=    216
   number of dos      NEDOS =    301   number of ions     NIONS =     65
   non local maximal  LDIM  =      6   non local SUM 2l+1 LMDIM =     18
   total plane-waves  NPLWV = 846720
   max r-space proj   IRMAX =      1   max aug-charges    IRDMAX=  25433
   dimension x,y,z NGX =    84 NGY =   60 NGZ =  168
   dimension x,y,z NGXF=   168 NGYF=  120 NGZF=  336
   support grid    NGXF=   168 NGYF=  120 NGZF=  336
   ions per type =               6  10   4  18  26   1
 NGX,Y,Z   is equivalent  to a cutoff of  10.14, 10.43, 10.10 a.u.
 NGXF,Y,Z  is equivalent  to a cutoff of  20.28, 20.86, 20.19 a.u.


 I would recommend the setting:
   dimension x,y,z NGX =    83 NGY =   57 NGZ =  166
 SYSTEM =  (110) surface                           
 POSCAR =  Al Nb Ta Ti Zr                          

 Startparameter for this run:
   NWRITE =      2    write-flag & timer
   PREC   = normal    normal or accurate (medium, high low for compatibility)
   ISTART =      0    job   : 0-new  1-cont  2-samecut
   ICHARG =      2    charge: 1-file 2-atom 10-const
   ISPIN  =      1    spin polarized calculation?
   LNONCOLLINEAR =      F non collinear calculations
   LSORBIT =      F    spin-orbit coupling
   INIWAV =      1    electr: 0-lowe 1-rand  2-diag
   LASPH  =      F    aspherical Exc in radial PAW
   METAGGA=      F    non-selfconsistent MetaGGA calc.

 Electronic Relaxation 1
   ENCUT  =  600.0 eV  44.10 Ry    6.64 a.u.  27.50 19.10 55.25*2*pi/ulx,y,z
   ENINI  =  600.0     initial cutoff
   ENAUG  =  605.4 eV  augmentation charge cutoff
   NELM   =     60;   NELMIN=  2; NELMDL= -5     # of ELM steps 
   EDIFF  = 0.1E-03   stopping-criterion for ELM
   LREAL  =      F    real-space projection
   NLSPLINE    = F    spline interpolate recip. space projectors
   LCOMPAT=      F    compatible to vasp.4.4
   GGA_COMPAT  = T    GGA compatible to vasp.4.4-vasp.4.6
   LMAXPAW     = -100 max onsite density
   LMAXMIX     =    2 max onsite mixed and CHGCAR
   VOSKOWN=      0    Vosko Wilk Nusair interpolation
   ROPT   =    0.00000   0.00000   0.00000   0.00000
   ROPT   =    0.00000   0.00000
 Ionic relaxation
   EDIFFG = -.1E-01   stopping-criterion for IOM
   NSW    =    200    number of steps for IOM
   NBLOCK =      1;   KBLOCK =    200    inner block; outer block 
   IBRION =      2    ionic relax: 0-MD 1-quasi-New 2-CG
   NFREE  =      1    steps in history (QN), initial steepest desc. (CG)
   ISIF   =      2    stress and relaxation
   IWAVPR =     11    prediction:  0-non 1-charg 2-wave 3-comb
   ISYM   =      2    0-nonsym 1-usesym 2-fastsym
   LCORR  =      T    Harris-Foulkes like correction to forces

   POTIM  = 0.1000    time-step for ionic-motion
   TEIN   =    0.0    initial temperature
   TEBEG  =    0.0;   TEEND  =   0.0 temperature during run
   SMASS  =  -3.00    Nose mass-parameter (am)
   estimated Nose-frequenzy (Omega)   =  0.10E-29 period in steps =****** mass=  -0.433E-26a.u.
   SCALEE = 1.0000    scale energy and forces
   NPACO  =    256;   APACO  = 16.0  distance and # of slots for P.C.
   PSTRESS=    0.0 pullay stress

  Mass of Ions in am
   POMASS =  26.98 92.91180.95 47.88 91.22 16.00
  Ionic Valenz
   ZVAL   =   3.00 13.00  5.00  4.00  4.00  6.00
  Atomic Wigner-Seitz radii
   RWIGS  =  -1.00 -1.00 -1.00 -1.00 -1.00 -1.00
  virtual crystal weights 
   VCA    =   1.00  1.00  1.00  1.00  1.00  1.00
   NELECT =     350.0000    total number of electrons
   NUPDOWN=      -1.0000    fix difference up-down

 DOS related values:
   EMIN   =  10.00;   EMAX   =-10.00  energy-range for DOS
   EFERMI =   0.00
   ISMEAR =     2;   SIGMA  =   0.10  broadening in eV -4-tet -1-fermi 0-gaus

 Electronic relaxation 2 (details)
   IALGO  =     68    algorithm
   LDIAG  =      T    sub-space diagonalisation (order eigenvalues)
   LSUBROT=      F    optimize rotation matrix (better conditioning)
   TURBO    =      0    0=normal 1=particle mesh
   IRESTART =      0    0=no restart 2=restart with 2 vectors
   NREBOOT  =      0    no. of reboots
   NMIN     =      0    reboot dimension
   EREF     =   0.00    reference energy to select bands
   IMIX   =      4    mixing-type and parameters
     AMIX     =   0.40;   BMIX     =  1.00
     AMIX_MAG =   1.60;   BMIX_MAG =  1.00
     AMIN     =   0.10
     WC   =   100.;   INIMIX=   1;  MIXPRE=   1;  MAXMIX= -45

 Intra band minimization:
   WEIMIN = 0.0010     energy-eigenvalue tresh-hold
   EBREAK =  0.12E-06  absolut break condition
   DEPER  =   0.30     relativ break condition  

   TIME   =   0.40     timestep for ELM

  volume/ion in A,a.u.               =      56.06       378.28
  Fermi-wavevector in a.u.,A,eV,Ry     =   0.749757  1.416836  7.648324  0.562136
  Thomas-Fermi vector in A             =   1.846351
 
 Write flags
   LWAVE  =      F    write WAVECAR
   LCHARG =      F    write CHGCAR
   LVTOT  =      F    write LOCPOT, total local potential
   LVHAR  =      F    write LOCPOT, Hartree potential only
   LELF   =      F    write electronic localiz. function (ELF)
   LORBIT =      0    0 simple, 1 ext, 2 COOP (PROOUT)


 Dipole corrections
   LMONO  =      F    monopole corrections only (constant potential shift)
   LDIPOL =      F    correct potential (dipole corrections)
   IDIPOL =      0    1-x, 2-y, 3-z, 4-all directions 
   EPSILON=  1.0000000 bulk dielectric constant

 Exchange correlation treatment:
   GGA     =    --    GGA type
   LEXCH   =     8    internal setting for exchange type
   VOSKOWN=      0    Vosko Wilk Nusair interpolation
   LHFCALC =     F    Hartree Fock is set to
   LHFONE  =     F    Hartree Fock one center treatment
   AEXX    =    0.0000 exact exchange contribution

 Linear response parameters
   LEPSILON=     F    determine dielectric tensor
   LRPA    =     F    only Hartree local field effects (RPA)
   LNABLA  =     F    use nabla operator in PAW spheres
   LVEL    =     F    velocity operator in full k-point grid
   LINTERFAST=   F  fast interpolation
   KINTER  =     0    interpolate to denser k-point grid
   CSHIFT  =0.1000    complex shift for real part using Kramers Kronig
   OMEGAMAX=  -1.0    maximum frequency
   DEG_THRESHOLD= 0.2000000E-02 threshold for treating states as degnerate
   RTIME   =    0.100 relaxation time in fs

 Orbital magnetization related:
   ORBITALMAG=     F  switch on orbital magnetization
   LCHIMAG   =     F  perturbation theory with respect to B field
   DQ        =  0.001000  dq finite difference perturbation B field



--------------------------------------------------------------------------------------------------------


 conjugate gradient relaxation of ions
   using selective dynamics as specified on POSCAR
 charge density and potential will be updated during run
 non-spin polarized calculation
 RMM-DIIS sequential band-by-band and
  variant of blocked Davidson during initial phase
 perform sub-space diagonalisation
    before iterative eigenvector-optimisation
 modified Broyden-mixing scheme, WC =      100.0
 initial mixing is a Kerker type mixing with AMIX =  0.4000 and BMIX =      1.0000
 Hartree-type preconditioning will be used
 using additional bands           41
 reciprocal scheme for non local part
 use partial core corrections
 calculate Harris-corrections to forces 
   (improved forces if not selfconsistent)
 use gradient corrections 
 use of overlap-Matrix (Vanderbilt PP)
 Methfessel and Paxton  Order N= 2 SIGMA  =   0.10


--------------------------------------------------------------------------------------------------------


  energy-cutoff  :      600.00
  volume of cell :     3643.60
      direct lattice vectors                 reciprocal lattice vectors
    13.771350861  0.000000000  0.000000000     0.072614518  0.000000000  0.000000000
     0.000000000  9.564481735  0.000000000     0.000000000  0.104553496  0.000000000
     0.000000000  0.000000000 27.662570434     0.000000000  0.000000000  0.036149931

  length of vectors
    13.771350861  9.564481735 27.662570434     0.072614518  0.104553496  0.036149931


 
 k-points in units of 2pi/SCALE and weight: k-points                                
   0.00000000  0.00000000  0.00000000       0.111
   0.02420484  0.00000000  0.00000000       0.222
   0.00000000  0.03485117  0.00000000       0.222
   0.02420484  0.03485117  0.00000000       0.222
  -0.02420484  0.03485117  0.00000000       0.222
 
 k-points in reciprocal lattice and weights: k-points                                
   0.00000000  0.00000000  0.00000000       0.111
   0.33333333  0.00000000  0.00000000       0.222
   0.00000000  0.33333333  0.00000000       0.222
   0.33333333  0.33333333  0.00000000       0.222
  -0.33333333  0.33333333  0.00000000       0.222
 
 position of ions in fractional coordinates (direct lattice) 
   0.62276447  0.86746430  0.37590333
   0.62110684  0.39282943  0.54676382
   0.61746043  0.63478297  0.62509390
   0.61839700  0.08363760  0.44965952
   0.98062617  0.63958941  0.55421798
   0.97963780  0.12056648  0.37767599
   0.72857308  0.34338307  0.45816820
   0.72088927  0.89708079  0.62097609
   0.51739597  0.60805875  0.36719826
   0.51347102  0.13342090  0.53935978
   0.61811078  0.34297293  0.36889183
   0.61819054  0.87377246  0.53815371
   0.74231148  0.84345710  0.46199300
   0.74133510  0.39077747  0.62792460
   0.39405298  0.84738672  0.36896032
   0.39162768  0.37115948  0.54224738
   0.61928761  0.60162497  0.45752798
   0.61893963  0.14752592  0.62275185
   0.27944195  0.83362269  0.45088327
   0.28510417  0.37841772  0.62210189
   0.27821470  0.59517702  0.53534418
   0.28324246  0.07725573  0.36149931
   0.73672075  0.63390309  0.54003145
   0.74002355  0.11549973  0.36646499
   0.49591756  0.83582580  0.45790018
   0.49657563  0.37815894  0.62675351
   0.83770092  0.64833127  0.62365408
   0.84724605  0.11017048  0.45460239
   0.85243583  0.34907103  0.37639265
   0.85331411  0.86803278  0.55256476
   0.52175105  0.33942658  0.46105252
   0.51764222  0.89459318  0.62252322
   0.49908519  0.62628231  0.53962068
   0.49943882  0.10200214  0.36464270
   0.40016663  0.58028412  0.45130253
   0.39649157  0.13292463  0.62084931
   0.25505811  0.36595738  0.46399110
   0.23611244  0.92258226  0.62982287
   0.25182599  0.61397660  0.37627308
   0.24257461  0.13539744  0.55108329
   0.86539888  0.85904646  0.37036829
   0.86503044  0.38033962  0.54585641
   0.38059813  0.35186696  0.37331264
   0.37531167  0.87630265  0.54775355
   0.38282708  0.64301477  0.62727678
   0.38408008  0.10357511  0.45579618
   0.11657381  0.61110574  0.46457054
   0.10488721  0.19683054  0.63618073
   0.99629861  0.59295863  0.36811234
   0.99453982  0.11215919  0.54621715
   0.11869311  0.87196302  0.37467704
   0.11794364  0.39534298  0.54992956
   0.99977952  0.33051389  0.45306987
   0.00479331  0.88050717  0.62576256
   0.14482272  0.33176249  0.36788561
   0.14041335  0.84308239  0.54194367
   0.97888047  0.87608504  0.46520830
   0.95558473  0.42844770  0.64430565
   0.14706051  0.62277710  0.62552485
   0.14721048  0.09173214  0.45072276
   0.73135245  0.60578495  0.36679988
   0.73545194  0.12899008  0.53903297
   0.86923259  0.59196168  0.45825814
   0.85822044  0.13918520  0.63276177
   0.26047784  0.74956236  0.65797436
 
 position of ions in cartesian coordinates  (Angst):
   8.57630799  8.29684649 10.39845223
   8.55348023  3.75720994 15.12489257
   8.50326419  6.07137012 17.29170391
   8.51616202  0.79995025 12.43873821
  13.50454707  6.11734125 15.33109381
  13.49093588  1.15315590 10.44748880
  10.03343557  3.28428114 12.67411000
   9.92761907  8.58011283 17.17779477
   7.12524148  5.81576681 10.15764776
   7.07118959  1.27610174 14.92007792
   8.51222037  3.28035836 10.20449636
   8.51331876  8.35718069 14.88671504
  10.22263181  8.06723005 12.77991378
  10.20918572  3.73758399 17.37000860
   5.42664188  8.10481479 10.20639088
   5.39324212  3.54994810 14.99995622
   8.52842696  5.75423100 12.65640004
   8.52363481  1.41100896 17.22691692
   3.84829318  7.97316903 12.47259035
   3.92626955  3.61936936 17.20893723
   3.83139222  5.69255972 14.80899606
   3.90063135  0.73891098 10.00000000
  10.14563992  6.06295448 14.93865799
  10.19112400  1.10469510 10.13736353
   6.82945470  7.99424061 12.66669595
   6.83851718  3.61689432 17.33761298
  11.53627334  6.20095264 17.25187486
  11.66772263  1.05372358 12.57547056
  11.73919286  3.33868345 10.41198829
  11.75128806  8.30228372 15.28536149
   7.18521672  3.24643930 12.75389771
   7.12863258  8.55632017 17.22059246
   6.87307728  5.99006567 14.92729497
   6.87794726  0.97559764 10.08695433
   5.51083508  5.55011685 12.48418803
   5.46022458  1.27135518 17.17428784
   3.51249472  3.50019267 12.83518635
   3.25158727  8.82402116 17.42251959
   3.46798404  5.87236796 10.40868071
   3.34058010  1.29500636 15.24438019
  11.91771166  8.21633417 10.24533883
  11.91263769  3.63775139 15.09979126
   5.24135036  3.36542512 10.32678719
   5.16854864  8.38138066 15.15227118
   5.27204600  6.15010302 17.35208806
   5.28930157  0.99064225 12.60849381
   1.60537885  5.84490969 12.85121538
   1.44443863  1.88258208 17.59839433
  13.72037774  5.67134198 10.18293350
  13.69615686  1.07274448 15.10977051
   1.63456451  8.33987442 10.36453009
   1.62424329  3.78125073 15.21246532
  13.76831459  3.16119411 12.53307716
   0.06601040  8.42159475 17.31020088
   1.99440444  3.17313630 10.17666150
   1.93368154  8.06364609 14.99155498
  13.48050634  8.37929939 12.86885734
  13.15969262  4.09788017 17.82315035
   2.02522195  5.95654024 17.30362516
   2.02728715  0.87737042 12.46815015
  10.07171117  5.79401911 10.14662739
  10.12816674  1.23372328 14.91103744
  11.97050705  5.66180669 12.67659812
  11.81885475  1.33123435 17.50381712
   3.58713179  7.16917551 18.20126212
 


--------------------------------------------------------------------------------------------------------


 k-point  1 :   0.0000 0.0000 0.0000  plane waves:  121663
 k-point  2 :   0.3333 0.0000 0.0000  plane waves:  121577
 k-point  3 :   0.0000 0.3333 0.0000  plane waves:  121622
 k-point  4 :   0.3333 0.3333 0.0000  plane waves:  121647
 k-point  5 :  -0.3333 0.3333 0.0000  plane waves:  121647

 maximum and minimum number of plane-waves per node :      5107     5041

 maximum number of plane-waves:    121663
 maximum index in each direction: 
   IXMAX=   27   IYMAX=   19   IZMAX=   55
   IXMIN=  -27   IYMIN=  -19   IZMIN=  -55

 WARNING: aliasing errors must be expected set NGX to 110 to avoid them
 WARNING: aliasing errors must be expected set NGY to  78 to avoid them
 WARNING: aliasing errors must be expected set NGZ to 222 to avoid them
 aliasing errors are usually negligible using standard VASP settings
 and one can safely disregard these warnings

 parallel 3D FFT for wavefunctions:
    minimum data exchange during FFTs selected (reduces bandwidth)
 parallel 3D FFT for charge:
    minimum data exchange during FFTs selected (reduces bandwidth)


 total amount of memory used by VASP on root node    76168. kBytes
========================================================================

   base      :      30000. kBytes
   nonl-proj :      27228. kBytes
   fftplans  :       2636. kBytes
   grid      :       5182. kBytes
   one-center:         46. kBytes
   wavefun   :      11076. kBytes
 
     INWAV:  cpu time    0.0000: real time    0.0000
 Broyden mixing: mesh for mixing (old mesh)
   NGX = 55   NGY = 39   NGZ =111
  (NGX  =168   NGY  =120   NGZ  =336)
  gives a total of 238095 points

 initial charge density was supplied:
 charge density of overlapping atoms calculated
 number of electron     350.0000000 magnetization 
 keeping initial charge density in first step


--------------------------------------------------------------------------------------------------------


 Maximum index for augmentation-charges         1033 (set IRDMAX)


--------------------------------------------------------------------------------------------------------


 First call to EWALD:  gamma=   0.115
 Maximum number of real-space cells 3x 4x 2
 Maximum number of reciprocal cells 3x 2x 5

 FEWALD executed in parallel
    FEWALD:  cpu time    0.0026: real time    0.0026


----------------------------------------- Iteration    1(   1)  ---------------------------------------


    POTLOK:  cpu time    0.0462: real time    0.0512
    SETDIJ:  cpu time    0.0120: real time    0.0137
     EDDAV:  cpu time    4.5767: real time    4.6095
       DOS:  cpu time    0.0021: real time    0.0043
    --------------------------------------------
      LOOP:  cpu time    4.6409: real time    4.6899

 eigenvalue-minimisations  :  2296
 total energy-change (2. order) : 0.3871665E+04  (-0.1266897E+05)
 number of electron     350.0000000 magnetization 
 augmentation part      350.0000000 magnetization 

 Free energy of the ion-electron system (eV)
  ---------------------------------------------------
  alpha Z        PSCENC =       518.63607455
  Ewald energy   TEWEN  =     71254.67039482
  -Hartree energ DENC   =    -89698.39293782
  -exchange      EXHF   =         0.00000000
  -V(xc)+E(xc)   XCENC  =     -3061.08915788
  PAW double counting   =     19785.83060006   -15696.39549147
  entropy T*S    EENTRO =        -0.00353198
  eigenvalues    EBANDS =       210.04449242
  atomic energy  EATOM  =     20558.36454164
  Solvation  Ediel_sol  =         0.00000000
  ---------------------------------------------------
  free energy    TOTEN  =      3871.66498434 eV

  energy without entropy =     3871.66851632  energy(sigma->0) =     3871.66586734


--------------------------------------------------------------------------------------------------------




----------------------------------------- Iteration    1(   2)  ---------------------------------------


     EDDAV:  cpu time    4.5918: real time    4.5924
       DOS:  cpu time    0.0010: real time    0.0010
    --------------------------------------------
      LOOP:  cpu time    4.5945: real time    4.6010

 eigenvalue-minimisations  :  2360
 total energy-change (2. order) :-0.3609829E+04  (-0.3500736E+04)
 number of electron     350.0000000 magnetization 
 augmentation part      350.0000000 magnetization 

 Free energy of the ion-electron system (eV)
  ---------------------------------------------------
  alpha Z        PSCENC =       518.63607455
  Ewald energy   TEWEN  =     71254.67039482
  -Hartree energ DENC   =    -89698.39293782
  -exchange      EXHF   =         0.00000000
  -V(xc)+E(xc)   XCENC  =     -3061.08915788
  PAW double counting   =     19785.83060006   -15696.39549147
  entropy T*S    EENTRO =         0.00535244
  eigenvalues    EBANDS =     -3399.79319051
  atomic energy  EATOM  =     20558.36454164
  Solvation  Ediel_sol  =         0.00000000
  ---------------------------------------------------
  free energy    TOTEN  =       261.83618583 eV

  energy without entropy =      261.83083339  energy(sigma->0) =      261.83484772


--------------------------------------------------------------------------------------------------------




----------------------------------------- Iteration    1(   3)  ---------------------------------------


     EDDAV:  cpu time    6.8799: real time    6.8813
       DOS:  cpu time    0.0007: real time    0.0007
    --------------------------------------------
      LOOP:  cpu time    6.8822: real time    6.8897

 eigenvalue-minimisations  :  3928
 total energy-change (2. order) :-0.7426281E+03  (-0.7184486E+03)
 number of electron     350.0000000 magnetization 
 augmentation part      350.0000000 magnetization 

 Free energy of the ion-electron system (eV)
  ---------------------------------------------------
  alpha Z        PSCENC =       518.63607455
  Ewald energy   TEWEN  =     71254.67039482
  -Hartree energ DENC   =    -89698.39293782
  -exchange      EXHF   =         0.00000000
  -V(xc)+E(xc)   XCENC  =     -3061.08915788
  PAW double counting   =     19785.83060006   -15696.39549147
  entropy T*S    EENTRO =         0.00189014
  eigenvalues    EBANDS =     -4142.41781734
  atomic energy  EATOM  =     20558.36454164
  Solvation  Ediel_sol  =         0.00000000
  ---------------------------------------------------
  free energy    TOTEN  =      -480.79190330 eV

  energy without entropy =     -480.79379344  energy(sigma->0) =     -480.79237583


--------------------------------------------------------------------------------------------------------




----------------------------------------- Iteration    1(   4)  ---------------------------------------


     EDDAV:  cpu time    6.3891: real time    6.3892
       DOS:  cpu time    0.0007: real time    0.0007
    --------------------------------------------
      LOOP:  cpu time    6.3912: real time    6.3971

 eigenvalue-minimisations  :  3592
 total energy-change (2. order) :-0.9292481E+02  (-0.8847667E+02)
 number of electron     350.0000000 magnetization 
 augmentation part      350.0000000 magnetization 

 Free energy of the ion-electron system (eV)
  ---------------------------------------------------
  alpha Z        PSCENC =       518.63607455
  Ewald energy   TEWEN  =     71254.67039482
  -Hartree energ DENC   =    -89698.39293782
  -exchange      EXHF   =         0.00000000
  -V(xc)+E(xc)   XCENC  =     -3061.08915788
  PAW double counting   =     19785.83060006   -15696.39549147
  entropy T*S    EENTRO =         0.00034185
  eigenvalues    EBANDS =     -4235.34108034
  atomic energy  EATOM  =     20558.36454164
  Solvation  Ediel_sol  =         0.00000000
  ---------------------------------------------------
  free energy    TOTEN  =      -573.71671459 eV

  energy without entropy =     -573.71705643  energy(sigma->0) =     -573.71680005


--------------------------------------------------------------------------------------------------------




----------------------------------------- Iteration    1(   5)  ---------------------------------------


     EDDAV:  cpu time    7.0550: real time    7.0551
       DOS:  cpu time    0.0012: real time    0.0012
    CHARGE:  cpu time    0.0847: real time    0.0859
    MIXING:  cpu time    0.0049: real time    0.0059
    --------------------------------------------
      LOOP:  cpu time    7.1473: real time    7.1564

 eigenvalue-minimisations  :  4048
 total energy-change (2. order) :-0.1340487E+02  (-0.1303325E+02)
 number of electron     349.9999990 magnetization 
 augmentation part       42.3273755 magnetization 

 Broyden mixing:
  rms(total) = 0.59892E+01    rms(broyden)= 0.59892E+01
  rms(prec ) = 0.65934E+01
  weight for this iteration     100.00

 Free energy of the ion-electron system (eV)
  ---------------------------------------------------
  alpha Z        PSCENC =       518.63607455
  Ewald energy   TEWEN  =     71254.67039482
  -Hartree energ DENC   =    -89698.39293782
  -exchange      EXHF   =         0.00000000
  -V(xc)+E(xc)   XCENC  =     -3061.08915788
  PAW double counting   =     19785.83060006   -15696.39549147
  entropy T*S    EENTRO =         0.00319570
  eigenvalues    EBANDS =     -4248.74880599
  atomic energy  EATOM  =     20558.36454164
  Solvation  Ediel_sol  =         0.00000000
  ---------------------------------------------------
  free energy    TOTEN  =      -587.12158639 eV

  energy without entropy =     -587.12478209  energy(sigma->0) =     -587.12238532


--------------------------------------------------------------------------------------------------------




----------------------------------------- Iteration    1(   6)  ---------------------------------------


    POTLOK:  cpu time    0.0309: real time    0.0309
    SETDIJ:  cpu time    0.0058: real time    0.0058
    EDDIAG:  cpu time    0.5271: real time    0.5282
  RMM-DIIS:  cpu time    4.4879: real time    4.4882
    ORTHCH:  cpu time    0.1480: real time    0.1480
       DOS:  cpu time    0.0013: real time    0.0013
    CHARGE:  cpu time    0.0830: real time    0.0830
    MIXING:  cpu time    0.0023: real time    0.0048
    --------------------------------------------
      LOOP:  cpu time    5.2881: real time    5.2986

 eigenvalue-minimisations  :  3557
 total energy-change (2. order) :-0.5534570E+02  (-0.1384987E+03)
 number of electron     349.9999988 magnetization 
 augmentation part       57.4706891 magnetization 

 Broyden mixing:
  rms(total) = 0.43260E+01    rms(broyden)= 0.43260E+01
  rms(prec ) = 0.56541E+01
  weight for this iteration     100.00

 eigenvalues of (default mixing * dielectric matrix)
  average eigenvalue GAMMA=   0.7005
  0.7005

 Free energy of the ion-electron system (eV)
  ---------------------------------------------------
  alpha Z        PSCENC =       518.63607455
  Ewald energy   TEWEN  =     71254.67039482
  -Hartree energ DENC   =    -90368.13609369
  -exchange      EXHF   =         0.00000000
  -V(xc)+E(xc)   XCENC  =     -3050.31372679
  PAW double counting   =     23282.32392075   -19193.62828482
  entropy T*S    EENTRO =         0.00043674
  eigenvalues    EBANDS =     -3644.38455239
  atomic energy  EATOM  =     20558.36454164
  Solvation  Ediel_sol  =         0.00000000
  ---------------------------------------------------
  free energy    TOTEN  =      -642.46728918 eV

  energy without entropy =     -642.46772593  energy(sigma->0) =     -642.46739837


--------------------------------------------------------------------------------------------------------




----------------------------------------- Iteration    1(   7)  ---------------------------------------


    POTLOK:  cpu time    0.0308: real time    0.0308
    SETDIJ:  cpu time    0.0057: real time    0.0057
    EDDIAG:  cpu time    0.5346: real time    0.5346
  RMM-DIIS:  cpu time    3.1403: real time    3.1403
    ORTHCH:  cpu time    0.1471: real time    0.1471
       DOS:  cpu time    0.0016: real time    0.0016
    CHARGE:  cpu time    0.0829: real time    0.0829
    MIXING:  cpu time    0.0012: real time    0.0017
    --------------------------------------------
      LOOP:  cpu time    3.9457: real time    3.9518

 eigenvalue-minimisations  :  2395
 total energy-change (2. order) : 0.1003234E+03  (-0.3183737E+02)
 number of electron     349.9999994 magnetization 
 augmentation part       50.0885460 magnetization 

 Broyden mixing:
  rms(total) = 0.30280E+01    rms(broyden)= 0.30280E+01
  rms(prec ) = 0.42051E+01
  weight for this iteration     100.00

 eigenvalues of (default mixing * dielectric matrix)
  average eigenvalue GAMMA=   0.7316
  1.1199  0.3433

 Free energy of the ion-electron system (eV)
  ---------------------------------------------------
  alpha Z        PSCENC =       518.63607455
  Ewald energy   TEWEN  =     71254.67039482
  -Hartree energ DENC   =    -89941.63915316
  -exchange      EXHF   =         0.00000000
  -V(xc)+E(xc)   XCENC  =     -3051.45111011
  PAW double counting   =     23559.55837893   -19482.83675389
  entropy T*S    EENTRO =        -0.00326741
  eigenvalues    EBANDS =     -3957.44296493
  atomic energy  EATOM  =     20558.36454164
  Solvation  Ediel_sol  =         0.00000000
  ---------------------------------------------------
  free energy    TOTEN  =      -542.14385955 eV

  energy without entropy =     -542.14059214  energy(sigma->0) =     -542.14304270


--------------------------------------------------------------------------------------------------------




----------------------------------------- Iteration    1(   8)  ---------------------------------------


    POTLOK:  cpu time    0.0307: real time    0.0307
    SETDIJ:  cpu time    0.0059: real time    0.0059
    EDDIAG:  cpu time    0.5254: real time    0.5254
  RMM-DIIS:  cpu time    4.2760: real time    4.2761
    ORTHCH:  cpu time    0.1480: real time    0.1480
       DOS:  cpu time    0.0010: real time    0.0010
    CHARGE:  cpu time    0.0833: real time    0.0833
    MIXING:  cpu time    0.0014: real time    0.0021
    --------------------------------------------
      LOOP:  cpu time    5.0732: real time    5.0799

 eigenvalue-minimisations  :  3346
 total energy-change (2. order) :-0.3384724E+02  (-0.1885864E+02)
 number of electron     349.9999994 magnetization 
 augmentation part       48.8367571 magnetization 

 Broyden mixing:
  rms(total) = 0.30782E+01    rms(broyden)= 0.30782E+01
  rms(prec ) = 0.60379E+01
  weight for this iteration     100.00

 eigenvalues of (default mixing * dielectric matrix)
  average eigenvalue GAMMA=   0.6445
  1.3128  0.3651  0.2557

 Free energy of the ion-electron system (eV)
  ---------------------------------------------------
  alpha Z        PSCENC =       518.63607455
  Ewald energy   TEWEN  =     71254.67039482
  -Hartree energ DENC   =    -90003.20730148
  -exchange      EXHF   =         0.00000000
  -V(xc)+E(xc)   XCENC  =     -3049.98616568
  PAW double counting   =     24321.16107062   -20246.49201572
  entropy T*S    EENTRO =        -0.02409004
  eigenvalues    EBANDS =     -3929.11360787
  atomic energy  EATOM  =     20558.36454164
  Solvation  Ediel_sol  =         0.00000000
  ---------------------------------------------------
  free energy    TOTEN  =      -575.99109916 eV

  energy without entropy =     -575.96700912  energy(sigma->0) =     -575.98507665


--------------------------------------------------------------------------------------------------------




----------------------------------------- Iteration    1(   9)  ---------------------------------------


    POTLOK:  cpu time    0.0306: real time    0.0306
    SETDIJ:  cpu time    0.0058: real time    0.0058
    EDDIAG:  cpu time    0.5366: real time    0.5366
  RMM-DIIS:  cpu time    4.5527: real time    4.5527
    ORTHCH:  cpu time    0.1482: real time    0.1482
       DOS:  cpu time    0.0010: real time    0.0010
    CHARGE:  cpu time    0.0817: real time    0.0817
    MIXING:  cpu time    0.0011: real time    0.0011
    --------------------------------------------
      LOOP:  cpu time    5.3594: real time    5.3659

 eigenvalue-minimisations  :  3507
 total energy-change (2. order) : 0.4828194E+02  (-0.6586640E+01)
 number of electron     349.9999988 magnetization 
 augmentation part       47.0991939 magnetization 

 Broyden mixing:
  rms(total) = 0.19607E+01    rms(broyden)= 0.19607E+01
  rms(prec ) = 0.25425E+01
  weight for this iteration     100.00

 eigenvalues of (default mixing * dielectric matrix)
  average eigenvalue GAMMA=   0.6113
  1.5315  0.3793  0.3793  0.1552

 Free energy of the ion-electron system (eV)
  ---------------------------------------------------
  alpha Z        PSCENC =       518.63607455
  Ewald energy   TEWEN  =     71254.67039482
  -Hartree energ DENC   =    -90073.05631559
  -exchange      EXHF   =         0.00000000
  -V(xc)+E(xc)   XCENC  =     -3048.06417714
  PAW double counting   =     24790.32635475   -20713.82621862
  entropy T*S    EENTRO =         0.00638571
  eigenvalues    EBANDS =     -3814.76619582
  atomic energy  EATOM  =     20558.36454164
  Solvation  Ediel_sol  =         0.00000000
  ---------------------------------------------------
  free energy    TOTEN  =      -527.70915571 eV

  energy without entropy =     -527.71554142  energy(sigma->0) =     -527.71075214


--------------------------------------------------------------------------------------------------------




----------------------------------------- Iteration    1(  10)  ---------------------------------------


    POTLOK:  cpu time    0.0307: real time    0.0307
    SETDIJ:  cpu time    0.0058: real time    0.0058
    EDDIAG:  cpu time    0.5358: real time    0.5358
  RMM-DIIS:  cpu time    3.8563: real time    3.8564
    ORTHCH:  cpu time    0.1490: real time    0.1490
       DOS:  cpu time    0.0007: real time    0.0007
    CHARGE:  cpu time    0.0820: real time    0.0820
    MIXING:  cpu time    0.0013: real time    0.0013
    --------------------------------------------
      LOOP:  cpu time    4.6632: real time    4.6697

 eigenvalue-minimisations  :  3019
 total energy-change (2. order) : 0.1103336E+02  (-0.2663799E+01)
 number of electron     349.9999991 magnetization 
 augmentation part       48.7506891 magnetization 

 Broyden mixing:
  rms(total) = 0.10007E+01    rms(broyden)= 0.10007E+01
  rms(prec ) = 0.11598E+01
  weight for this iteration     100.00

 eigenvalues of (default mixing * dielectric matrix)
  average eigenvalue GAMMA=   0.6287
  1.5937  0.5417  0.5417  0.3100  0.1562

 Free energy of the ion-electron system (eV)
  ---------------------------------------------------
  alpha Z        PSCENC =       518.63607455
  Ewald energy   TEWEN  =     71254.67039482
  -Hartree energ DENC   =    -90120.07286233
  -exchange      EXHF   =         0.00000000
  -V(xc)+E(xc)   XCENC  =     -3044.60862343
  PAW double counting   =     25373.41268537   -21291.82655629
  entropy T*S    EENTRO =         0.00428591
  eigenvalues    EBANDS =     -3765.25573888
  atomic energy  EATOM  =     20558.36454164
  Solvation  Ediel_sol  =         0.00000000
  ---------------------------------------------------
  free energy    TOTEN  =      -516.67579864 eV

  energy without entropy =     -516.68008454  energy(sigma->0) =     -516.67687011


--------------------------------------------------------------------------------------------------------




----------------------------------------- Iteration    1(  11)  ---------------------------------------


    POTLOK:  cpu time    0.0308: real time    0.0308
    SETDIJ:  cpu time    0.0059: real time    0.0059
    EDDIAG:  cpu time    0.5402: real time    0.5402
  RMM-DIIS:  cpu time    4.2933: real time    4.2933
    ORTHCH:  cpu time    0.1476: real time    0.1477
       DOS:  cpu time    0.0022: real time    0.0022
    CHARGE:  cpu time    0.0829: real time    0.0829
    MIXING:  cpu time    0.0013: real time    0.0013
    --------------------------------------------
      LOOP:  cpu time    5.1059: real time    5.1129

 eigenvalue-minimisations  :  3356
 total energy-change (2. order) : 0.2282548E+00  (-0.1956303E+01)
 number of electron     349.9999991 magnetization 
 augmentation part       49.8780121 magnetization 

 Broyden mixing:
  rms(total) = 0.78280E+00    rms(broyden)= 0.78280E+00
  rms(prec ) = 0.95420E+00
  weight for this iteration     100.00

 eigenvalues of (default mixing * dielectric matrix)
  average eigenvalue GAMMA=   0.6412
  1.6629  0.7154  0.7154  0.3003  0.3003  0.1529

 Free energy of the ion-electron system (eV)
  ---------------------------------------------------
  alpha Z        PSCENC =       518.63607455
  Ewald energy   TEWEN  =     71254.67039482
  -Hartree energ DENC   =    -90131.48001887
  -exchange      EXHF   =         0.00000000
  -V(xc)+E(xc)   XCENC  =     -3043.08313620
  PAW double counting   =     25664.69853743   -21579.59818841
  entropy T*S    EENTRO =        -0.02398811
  eigenvalues    EBANDS =     -3758.63176068
  atomic energy  EATOM  =     20558.36454164
  Solvation  Ediel_sol  =         0.00000000
  ---------------------------------------------------
  free energy    TOTEN  =      -516.44754383 eV

  energy without entropy =     -516.42355572  energy(sigma->0) =     -516.44154680


--------------------------------------------------------------------------------------------------------




----------------------------------------- Iteration    1(  12)  ---------------------------------------


    POTLOK:  cpu time    0.0308: real time    0.0308
    SETDIJ:  cpu time    0.0058: real time    0.0058
    EDDIAG:  cpu time    0.5350: real time    0.5350
  RMM-DIIS:  cpu time    4.6726: real time    4.6727
    ORTHCH:  cpu time    0.1475: real time    0.1475
       DOS:  cpu time    0.0020: real time    0.0020
    CHARGE:  cpu time    0.0840: real time    0.0840
    MIXING:  cpu time    0.0013: real time    0.0013
    --------------------------------------------
      LOOP:  cpu time    5.4808: real time    5.4874

 eigenvalue-minimisations  :  3678
 total energy-change (2. order) : 0.1069700E+01  (-0.7673105E+00)
 number of electron     349.9999991 magnetization 
 augmentation part       50.2281428 magnetization 

 Broyden mixing:
  rms(total) = 0.42436E+00    rms(broyden)= 0.42435E+00
  rms(prec ) = 0.50842E+00
  weight for this iteration     100.00

 eigenvalues of (default mixing * dielectric matrix)
  average eigenvalue GAMMA=   0.6673
  1.7600  1.0525  0.5853  0.4964  0.3625  0.1539  0.2602

 Free energy of the ion-electron system (eV)
  ---------------------------------------------------
  alpha Z        PSCENC =       518.63607455
  Ewald energy   TEWEN  =     71254.67039482
  -Hartree energ DENC   =    -90159.91688435
  -exchange      EXHF   =         0.00000000
  -V(xc)+E(xc)   XCENC  =     -3041.64264622
  PAW double counting   =     25976.04108525   -21886.93423416
  entropy T*S    EENTRO =        -0.00619950
  eigenvalues    EBANDS =     -3734.58997579
  atomic energy  EATOM  =     20558.36454164
  Solvation  Ediel_sol  =         0.00000000
  ---------------------------------------------------
  free energy    TOTEN  =      -515.37784374 eV

  energy without entropy =     -515.37164424  energy(sigma->0) =     -515.37629387


--------------------------------------------------------------------------------------------------------




----------------------------------------- Iteration    1(  13)  ---------------------------------------


    POTLOK:  cpu time    0.0309: real time    0.0309
    SETDIJ:  cpu time    0.0058: real time    0.0058
    EDDIAG:  cpu time    0.5388: real time    0.5388
  RMM-DIIS:  cpu time    4.2493: real time    4.2493
    ORTHCH:  cpu time    0.1483: real time    0.1483
       DOS:  cpu time    0.0008: real time    0.0008
    CHARGE:  cpu time    0.0805: real time    0.0805
    MIXING:  cpu time    0.0013: real time    0.0013
    --------------------------------------------
      LOOP:  cpu time    5.0573: real time    5.0638

 eigenvalue-minimisations  :  3357
 total energy-change (2. order) :-0.1109178E+00  (-0.5432051E+00)
 number of electron     349.9999991 magnetization 
 augmentation part       50.7624946 magnetization 

 Broyden mixing:
  rms(total) = 0.44457E+00    rms(broyden)= 0.44457E+00
  rms(prec ) = 0.53166E+00
  weight for this iteration     100.00

 eigenvalues of (default mixing * dielectric matrix)
  average eigenvalue GAMMA=   0.6985
  1.8958  1.4263  0.6249  0.6249  0.1538  0.3146  0.3146  0.2330

 Free energy of the ion-electron system (eV)
  ---------------------------------------------------
  alpha Z        PSCENC =       518.63607455
  Ewald energy   TEWEN  =     71254.67039482
  -Hartree energ DENC   =    -90158.31060526
  -exchange      EXHF   =         0.00000000
  -V(xc)+E(xc)   XCENC  =     -3041.12495337
  PAW double counting   =     26108.94577818   -22016.94141180
  entropy T*S    EENTRO =        -0.01143866
  eigenvalues    EBANDS =     -3739.71714167
  atomic energy  EATOM  =     20558.36454164
  Solvation  Ediel_sol  =         0.00000000
  ---------------------------------------------------
  free energy    TOTEN  =      -515.48876158 eV

  energy without entropy =     -515.47732291  energy(sigma->0) =     -515.48590191


--------------------------------------------------------------------------------------------------------




----------------------------------------- Iteration    1(  14)  ---------------------------------------


    POTLOK:  cpu time    0.0311: real time    0.0311
    SETDIJ:  cpu time    0.0057: real time    0.0057
    EDDIAG:  cpu time    0.5367: real time    0.5367
  RMM-DIIS:  cpu time    4.1772: real time    4.1772
    ORTHCH:  cpu time    0.1494: real time    0.1494
       DOS:  cpu time    0.0007: real time    0.0007
    CHARGE:  cpu time    0.0823: real time    0.0823
    MIXING:  cpu time    0.0015: real time    0.0015
    --------------------------------------------
      LOOP:  cpu time    4.9865: real time    4.9931

 eigenvalue-minimisations  :  3270
 total energy-change (2. order) : 0.2339513E+00  (-0.2216490E+00)
 number of electron     349.9999990 magnetization 
 augmentation part       50.5917733 magnetization 

 Broyden mixing:
  rms(total) = 0.30101E+00    rms(broyden)= 0.30101E+00
  rms(prec ) = 0.37589E+00
  weight for this iteration     100.00

 eigenvalues of (default mixing * dielectric matrix)
  average eigenvalue GAMMA=   0.6800
[...]
  0.002   0.003   5.762   0.000  -0.000  16.652   0.000  -0.001
 -0.004  -0.007   0.000   5.763  -0.000   0.000  16.656  -0.000
  0.001   0.002  -0.000  -0.000   5.760  -0.001  -0.000  16.649
 total augmentation occupancy for first ion, spin component:           1
  3.398  -0.776  -0.026   0.157  -0.016   0.004  -0.024   0.003
 -0.776   0.195   0.016  -0.099   0.008  -0.001   0.009  -0.001
 -0.026   0.016   1.205   0.012  -0.001  -0.071  -0.001  -0.000
  0.157  -0.099   0.012   0.992   0.015  -0.001  -0.054  -0.001
 -0.016   0.008  -0.001   0.015   1.218  -0.000  -0.001  -0.070
  0.004  -0.001  -0.071  -0.001  -0.000   0.004   0.000   0.000
 -0.024   0.009  -0.001  -0.054  -0.001   0.000   0.003   0.000
  0.003  -0.001  -0.000  -0.001  -0.070   0.000   0.000   0.004


------------------------ aborting loop because EDIFF is reached ----------------------------------------


    CHARGE:  cpu time    0.1126: real time    0.1126
    FORLOC:  cpu time    0.0099: real time    0.0099
    FORNL :  cpu time    4.2503: real time    4.2503
    STRESS:  cpu time    4.0049: real time    4.0049
    FORCOR:  cpu time    0.0410: real time    0.0410
    FORHAR:  cpu time    0.0170: real time    0.0170
    MIXING:  cpu time    0.0009: real time    0.0009
    OFIELD:  cpu time    0.0000: real time    0.0000

  FORCE on cell =-STRESS in cart. coord.  units (eV):
  Direction    XX          YY          ZZ          XY          YZ          ZX
  --------------------------------------------------------------------------------------
  Alpha Z   518.63607   518.63607   518.63607
  Ewald   77180.73714 82412.00252-88397.01676  -819.04747    51.57466   555.47916
  Hartree 81666.37942 86650.92196-78142.73287  -643.84000    27.38332   516.88294
  E(xc)   -1469.74418 -1472.80041 -1461.03717    -0.26764    -0.54443    -0.27713
  Local  ************************162899.21802  1461.42764   -77.04951 -1071.07399
  n-local   -41.74959   -45.14644   -75.56875     8.65479    -0.26364     1.27030
  augment   442.32156   443.10306   438.64361    -1.03766     0.36210    -0.12777
  Kinetic  4193.47391  4185.80760  4204.09629    -7.41654     4.40006    -3.58755
  Fock        0.00000     0.00000     0.00000     0.00000     0.00000     0.00000
  -------------------------------------------------------------------------------------
  Total     -38.22981   -30.80046   -15.76155    -1.52689     5.86255    -1.43403
  in kB     -16.81056   -13.54370    -6.93073    -0.67141     2.57790    -0.63058
  external pressure =      -12.43 kB  Pullay stress =        0.00 kB


 VOLUME and BASIS-vectors are now :
 -----------------------------------------------------------------------------
  energy-cutoff  :      600.00
  volume of cell :     3643.60
      direct lattice vectors                 reciprocal lattice vectors
    13.771350861  0.000000000  0.000000000     0.072614518  0.000000000  0.000000000
     0.000000000  9.564481735  0.000000000     0.000000000  0.104553496  0.000000000
     0.000000000  0.000000000 27.662570434     0.000000000  0.000000000  0.036149931

  length of vectors
    13.771350861  9.564481735 27.662570434     0.072614518  0.104553496  0.036149931


 FORCES acting on ions
    electron-ion (+dipol)            ewald-force                    non-local-force                 convergence-correction
 -----------------------------------------------------------------------------------------------
   -.469E+02 -.339E+02 0.374E+03   0.467E+02 0.336E+02 -.373E+03   0.998E-01 0.971E-01 -.798E+00   0.156E-01 0.670E-02 -.368E-02
   -.181E+02 -.351E+02 -.141E+03   0.179E+02 0.351E+02 0.141E+03   0.132E+00 -.157E-01 0.101E+00   0.127E-01 -.260E-02 -.188E-01
   0.354E+02 0.209E+02 -.376E+03   -.350E+02 -.206E+02 0.375E+03   -.456E+00 -.348E+00 0.119E+01   0.928E-02 -.178E-02 -.458E-02
   0.103E+01 0.600E+01 0.188E+03   -.110E+01 -.589E+01 -.188E+03   0.620E-01 -.278E+00 -.845E+00   0.140E-01 0.329E-02 -.189E-01
   -.617E+02 0.749E+01 -.124E+03   0.612E+02 -.701E+01 0.125E+03   0.489E+00 -.472E+00 -.101E+01   -.525E-02 -.418E-02 -.151E-01
   -.465E+02 0.476E+01 0.316E+03   0.459E+02 -.421E+01 -.314E+03   0.671E+00 -.974E+00 -.226E+01   -.176E-01 0.196E-02 -.381E-02
   -.382E+03 -.772E+01 0.417E+03   0.381E+03 0.850E+01 -.418E+03   0.120E+00 -.360E+00 0.922E+00   0.258E-01 -.130E-01 -.856E-01
   -.278E+03 0.310E+02 -.167E+04   0.276E+03 -.301E+02 0.166E+04   0.122E+01 -.856E+00 0.408E+01   0.205E-01 0.144E-02 -.262E-01
   0.101E+03 -.100E+02 0.160E+04   -.101E+03 0.892E+01 -.160E+04   -.546E+00 0.607E+00 -.429E+01   0.556E-01 -.992E-02 -.132E-01
   0.215E+03 0.111E+02 -.444E+03   -.215E+03 -.112E+02 0.445E+03   0.971E-01 0.283E-01 -.132E+01   0.487E-01 -.844E-03 -.787E-01
   -.550E+02 0.137E+03 0.168E+04   0.557E+02 -.137E+03 -.167E+04   -.536E+00 -.407E+00 -.278E+01   0.710E-01 -.369E-01 -.363E-02
   0.109E+03 0.130E+03 -.439E+03   -.108E+03 -.130E+03 0.440E+03   -.648E+00 0.135E+00 -.250E+00   0.528E-01 0.712E-02 -.841E-01
   -.417E+03 0.589E+00 0.684E+03   0.418E+03 -.177E+01 -.683E+03   -.768E+00 0.146E+01 -.153E+01   0.185E-01 0.109E-01 -.852E-01
   -.159E+03 -.344E+02 -.152E+04   0.161E+03 0.339E+02 0.152E+04   -.154E+01 0.518E+00 0.293E+01   0.236E-01 -.993E-02 -.359E-01
   0.299E+03 -.116E+03 0.151E+04   -.299E+03 0.116E+03 -.150E+04   0.247E+00 -.377E+00 -.419E+01   0.296E-01 0.968E-02 -.222E-01
   0.360E+03 -.108E+03 -.454E+03   -.361E+03 0.107E+03 0.455E+03   0.192E+00 0.264E+00 -.719E+00   0.274E-01 -.164E-01 -.781E-01
   -.132E+02 0.135E+01 0.166E+03   0.127E+02 -.129E+01 -.166E+03   0.548E+00 -.222E+00 0.545E-01   0.210E-01 -.469E-02 -.265E-01
   0.938E+01 -.347E+02 -.665E+03   -.996E+01 0.346E+02 0.663E+03   0.562E+00 0.392E-01 0.246E+01   0.184E-01 0.277E-02 -.117E-01
   0.173E+03 -.739E+01 0.149E+03   -.172E+03 0.720E+01 -.151E+03   -.129E+01 0.520E+00 0.898E+00   -.485E-02 0.248E-02 -.204E-01
   0.134E+03 0.723E+01 -.577E+03   -.133E+03 -.698E+01 0.574E+03   -.770E+00 -.253E+00 0.306E+01   -.148E-01 0.191E-03 -.259E-02
   0.123E+03 -.545E+02 -.124E+03   -.123E+03 0.543E+02 0.124E+03   -.303E+00 0.218E+00 -.470E-01   -.101E-01 -.180E-03 -.176E-01
   0.117E+03 -.550E+02 0.461E+03   -.116E+03 0.551E+02 -.458E+03   -.834E+00 -.226E+00 -.268E+01   -.233E-02 0.140E-02 -.783E-02
   -.102E+03 0.664E+02 -.158E+03   0.102E+03 -.659E+02 0.157E+03   0.126E+00 -.427E+00 0.560E+00   0.364E-02 -.299E-02 -.261E-01
   -.101E+03 0.599E+02 0.515E+03   0.999E+02 -.593E+02 -.512E+03   0.463E+00 -.509E+00 -.275E+01   0.924E-02 0.370E-02 -.163E-02
   0.823E+02 -.125E+02 0.149E+03   -.833E+02 0.119E+02 -.149E+03   0.873E+00 0.798E+00 -.393E+00   0.173E-01 0.301E-02 -.191E-01
   0.331E+02 -.408E+02 -.531E+03   -.336E+02 0.407E+02 0.529E+03   0.486E+00 0.746E-01 0.226E+01   0.125E-01 0.390E-02 -.355E-02
   -.125E+03 -.254E+01 -.447E+03   0.124E+03 0.269E+01 0.445E+03   0.458E+00 -.151E+00 0.221E+01   0.192E-03 -.139E-02 -.105E-01
   -.165E+03 0.690E+01 0.178E+03   0.165E+03 -.676E+01 -.179E+03   0.353E+00 -.318E+00 0.270E+00   -.779E-02 0.345E-02 -.281E-01
   -.150E+03 -.560E+01 0.471E+03   0.150E+03 0.558E+01 -.468E+03   0.654E+00 -.499E-01 -.256E+01   -.932E-02 -.763E-02 -.428E-02
   -.198E+03 -.940E+00 -.168E+03   0.198E+03 0.113E+01 0.168E+03   0.720E+00 -.191E+00 0.164E+00   -.471E-02 0.344E-02 -.249E-01
   0.798E+02 0.710E+00 0.164E+03   -.800E+02 -.284E+00 -.164E+03   0.154E-01 -.103E+00 -.508E-02   0.187E-01 -.231E-02 -.225E-01
   0.118E+03 0.345E+02 -.528E+03   -.117E+03 -.340E+02 0.526E+03   -.879E+00 -.429E+00 0.232E+01   0.871E-02 0.155E-02 -.712E-02
   0.675E+02 -.282E+01 -.176E+03   -.678E+02 0.310E+01 0.175E+03   0.289E+00 -.283E+00 0.605E+00   0.184E-01 0.115E-02 -.234E-01
   0.359E+02 -.673E+00 0.495E+03   -.366E+02 0.594E+00 -.492E+03   0.598E+00 0.193E-01 -.246E+01   0.224E-01 0.346E-02 -.442E-02
   0.131E+03 0.564E+01 0.148E+03   -.131E+03 -.590E+01 -.148E+03   -.710E+00 0.680E+00 -.373E+00   0.121E-01 -.345E-02 -.207E-01
   0.110E+03 0.292E+02 -.514E+03   -.109E+03 -.291E+02 0.511E+03   -.480E+00 -.690E-01 0.241E+01   -.240E-02 -.983E-03 -.273E-02
   0.129E+03 0.948E+01 0.169E+03   -.129E+03 -.906E+01 -.169E+03   -.327E-01 -.459E+00 -.425E+00   -.698E-02 -.309E-02 -.186E-01
   0.606E+02 -.720E+02 -.400E+03   -.610E+02 0.714E+02 0.398E+03   0.451E+00 0.602E+00 0.224E+01   -.130E-01 0.572E-03 0.136E-02
   0.126E+03 0.388E+02 0.418E+03   -.126E+03 -.385E+02 -.415E+03   0.185E+00 -.513E+00 -.284E+01   -.751E-02 -.149E-02 -.914E-02
   0.123E+03 0.365E+02 -.160E+03   -.123E+03 -.359E+02 0.161E+03   -.264E+00 -.590E+00 -.715E+00   -.123E-01 0.451E-03 -.167E-01
   -.993E+02 -.109E+01 0.479E+03   0.996E+02 0.106E+01 -.475E+03   -.493E+00 0.381E-01 -.311E+01   -.917E-02 0.560E-02 -.333E-02
   -.152E+03 -.442E+00 -.140E+03   0.152E+03 0.379E+00 0.141E+03   0.634E+00 0.664E-01 -.504E+00   -.205E-02 -.213E-02 -.226E-01
   0.131E+03 0.286E+02 0.447E+03   -.130E+03 -.288E+02 -.444E+03   -.217E+00 0.341E+00 -.253E+01   0.101E-01 -.194E-02 -.645E-02
   0.135E+03 0.190E+02 -.176E+03   -.135E+03 -.188E+02 0.176E+03   -.431E+00 -.135E+00 0.192E-01   0.142E-02 0.534E-02 -.184E-01
   0.399E+01 0.927E+01 -.451E+03   -.588E+01 -.904E+01 0.448E+03   0.188E+01 -.230E+00 0.264E+01   -.413E-03 0.168E-02 0.429E-02
   0.131E+03 -.150E+01 0.187E+03   -.131E+03 0.130E+01 -.187E+03   0.248E+00 0.653E-01 0.573E-01   0.104E-01 0.246E-02 -.178E-01
   0.354E+02 0.413E+00 0.128E+03   -.352E+02 -.415E+00 -.129E+03   -.129E+00 -.287E-01 0.284E+00   -.192E-01 -.175E-02 -.197E-01
   0.838E+01 0.568E+01 -.429E+03   -.857E+01 -.586E+01 0.426E+03   0.200E+00 0.184E+00 0.314E+01   -.123E-01 0.201E-02 -.684E-02
   -.415E+02 -.375E+00 0.432E+03   0.418E+02 0.730E+00 -.429E+03   -.578E-01 -.266E+00 -.275E+01   -.174E-01 -.193E-02 -.359E-02
   -.723E+02 -.643E+01 -.141E+03   0.723E+02 0.604E+01 0.141E+03   0.654E-01 0.380E+00 -.158E+00   -.990E-02 0.471E-02 -.194E-01
   0.509E+02 -.309E+01 0.411E+03   -.509E+02 0.244E+01 -.408E+03   0.553E-02 0.203E+00 -.314E+01   -.171E-01 -.232E-03 -.727E-02
   0.456E+02 0.274E+01 -.148E+03   -.452E+02 -.311E+01 0.148E+03   -.428E+00 0.380E+00 -.562E+00   -.185E-01 -.380E-02 -.162E-01
   -.709E+02 -.220E+01 0.163E+03   0.710E+02 0.241E+01 -.163E+03   0.788E-01 0.117E+00 0.490E-01   -.182E-01 -.309E-03 -.181E-01
   -.555E+02 -.449E+01 -.413E+03   0.556E+02 0.476E+01 0.410E+03   -.840E-02 -.267E+00 0.294E+01   -.388E-02 0.377E-02 -.694E-02
   0.403E+02 0.125E+01 0.428E+03   -.396E+02 -.114E+01 -.424E+03   -.813E+00 -.274E+00 -.317E+01   -.160E-01 0.625E-03 -.592E-02
   0.330E+02 -.858E+01 -.128E+03   -.324E+02 0.868E+01 0.128E+03   -.547E+00 -.101E+00 -.330E+00   -.146E-01 0.438E-02 -.157E-01
   -.978E+02 0.503E+00 0.133E+03   0.974E+02 -.690E+00 -.134E+03   0.478E+00 0.218E+00 0.209E+00   -.138E-01 0.182E-02 -.219E-01
   -.965E+02 -.202E+01 -.460E+03   0.955E+02 0.134E+01 0.457E+03   0.998E+00 0.694E+00 0.367E+01   -.326E-02 -.382E-02 -.763E-02
   0.800E+02 0.298E+02 -.384E+03   -.781E+02 -.288E+02 0.382E+03   -.187E+01 -.956E+00 0.194E+01   -.122E-01 -.119E-02 -.151E-02
   0.497E+02 -.475E+01 0.165E+03   -.491E+02 0.458E+01 -.165E+03   -.559E+00 0.461E+00 0.191E+00   -.158E-01 0.152E-02 -.142E-01
   -.141E+03 -.430E+02 0.511E+03   0.140E+03 0.424E+02 -.507E+03   0.815E+00 0.413E-01 -.328E+01   0.114E-01 -.283E-02 -.140E-02
   -.144E+03 -.427E+02 -.138E+03   0.144E+03 0.422E+02 0.139E+03   0.206E+00 0.514E+00 -.793E+00   0.651E-02 0.406E-02 -.250E-01
   -.159E+03 0.454E+01 0.161E+03   0.158E+03 -.456E+01 -.162E+03   0.776E+00 0.431E+00 0.389E+00   -.538E-02 -.394E-02 -.223E-01
   -.128E+03 0.674E+01 -.463E+03   0.128E+03 -.602E+01 0.460E+03   0.293E+00 -.721E+00 0.319E+01   0.428E-03 0.459E-02 -.961E-02
   0.568E+02 0.180E+01 -.784E+03   -.569E+02 -.221E+01 0.799E+03   0.137E+00 0.416E+00 -.151E+02   0.156E-02 -.119E-01 0.197E-01
 -----------------------------------------------------------------------------------------------
   -.161E+01 0.129E+01 0.243E+02   0.142E-12 -.344E-12 -.171E-11   0.131E+01 -.125E+01 -.231E+02   0.301E+00 -.443E-01 -.117E+01
 
 
 POSITION                                       TOTAL-FORCE (eV/Angst)
 -----------------------------------------------------------------------------------
      8.57631      8.29685     10.39845        -0.088790     -0.161408      0.015713
      8.56316      3.75308     15.10972        -0.000714      0.001924      0.001819
      8.49409      6.09872     17.31056        -0.003661      0.003496     -0.001226
      8.51616      0.79995     12.43874         0.002956     -0.162917     -0.279246
     13.46941      6.11407     15.33093        -0.000318      0.000863     -0.001232
     13.49094      1.15316     10.44749        -0.013269     -0.425673     -0.041181
     10.03344      3.28428     12.67411        -0.030109      0.403311     -0.555947
      9.92888      8.56079     17.16315         0.003330      0.001162     -0.003726
      7.12524      5.81577     10.15765        -0.150776     -0.490306      0.867896
      7.07281      1.25761     14.92014        -0.003709     -0.003536      0.005990
      8.51222      3.28036     10.20450         0.275363      0.096120      0.699258
      8.50833      8.35453     14.87657        -0.001331      0.000602     -0.000988
     10.22263      8.06723     12.77991         0.292662      0.292237     -0.551233
     10.18957      3.74402     17.38435        -0.001766      0.002261     -0.000242
      5.42664      8.10481     10.20639         0.339671      0.051299      0.904026
      5.42136      3.53305     14.95389        -0.003712      0.004922      0.000723
      8.52843      5.75423     12.65640         0.053151     -0.161451     -0.091353
      8.52205      1.41335     17.24310        -0.003374      0.003855     -0.000209
      3.84829      7.97317     12.47259        -0.464117      0.327612     -0.247529
      3.85444      3.66228     17.07992         0.003240      0.003189     -0.002737
      3.80403      5.65776     14.92859         0.002763     -0.001611      0.001291
      3.90063      0.73891     10.00000         0.489845     -0.124462      0.358639
     10.12295      6.06182     14.93483        -0.000246      0.000624      0.000519
     10.19112      1.10470     10.13736        -0.245243      0.045938      0.382739
      6.82945      7.99424     12.66670        -0.071644      0.242616     -0.353867
      6.88220      3.66992     17.29068        -0.003471      0.003480     -0.001497
     11.49708      6.18263     17.26264        -0.002573      0.003992     -0.000704
     11.66772      1.05372     12.57547        -0.081944     -0.173005     -0.695221
     11.73919      3.33868     10.41199        -0.305355     -0.077269      0.590815
     11.72620      8.27325     15.25584        -0.002041      0.003002      0.001024
      7.18522      3.24644     12.75390        -0.157068      0.320657     -0.533005
      7.10929      8.58172     17.18180        -0.000380      0.001362      0.000969
      6.86571      5.98983     14.92414        -0.004315      0.002005      0.000972
      6.87795      0.97560     10.08695        -0.067837     -0.055934      0.166791
      5.51084      5.55012     12.48419        -0.030393      0.418690     -0.227730
      5.50475      1.38589     17.18012        -0.001299      0.001203     -0.002997
      3.51249      3.50019     12.83519        -0.112924     -0.045155     -0.556800
      3.33441      8.81433     17.46618        -0.005692      0.006554     -0.003791
      3.46798      5.87237     10.40868         0.083869     -0.236239     -0.079623
      3.35724      1.29814     15.21019        -0.002098      0.001486     -0.001331
     11.91771      8.21633     10.24534        -0.204355      0.011335      0.670737
     11.90216      3.63483     15.09712        -0.001286      0.000851     -0.001124
      5.24135      3.36543     10.32679         0.183307      0.084873      0.102883
      5.12550      8.33934     15.15417         0.000730      0.000340     -0.002305
      5.19442      6.26412     17.46669        -0.004982     -0.000781     -0.003687
      5.28930      0.99064     12.60849         0.055728     -0.131699     -0.353070
      1.60538      5.84491     12.85122         0.066957     -0.032918     -0.471284
      1.44455      1.82831     17.53211        -0.002808      0.004781     -0.002101
     13.72038      5.67134     10.18293         0.214207      0.087606      0.668063
     13.65980      1.06201     15.10089        -0.003184      0.000880     -0.002806
      1.63456      8.33987     10.36453        -0.028463     -0.443534      0.152303
      1.55884      3.75968     15.17254        -0.001734      0.000692     -0.001767
     13.76831      3.16119     12.53308         0.141689      0.325477     -0.407642
     -0.04745      8.44876     17.28868        -0.000768      0.003237     -0.000489
      1.99440      3.17314     10.17666        -0.112584     -0.156891      0.688509
      1.88258      8.07064     15.05201        -0.001467      0.001382      0.000266
     13.48051      8.37930     12.86886         0.072330      0.034102     -0.317055
     13.15462      4.06695     17.81588        -0.000020      0.004724      0.001999
      2.02602      6.04023     17.36467         0.003789      0.001096      0.000528
      2.02729      0.87737     12.46815         0.016244      0.292706     -0.289613
     10.07171      5.79402     10.14663         0.129762     -0.615202      0.146091
     10.11960      1.22713     14.90147         0.000329      0.001514     -0.001308
     11.97051      5.66181     12.67660        -0.205341      0.404363     -0.345830
     11.78014      1.33239     17.52132        -0.002721      0.002934     -0.001682
      3.51399      7.13444     18.39957        -0.002042     -0.007365      0.004612
 -----------------------------------------------------------------------------------
    total drift:                                0.000860     -0.004135      0.010052


--------------------------------------------------------------------------------------------------------



  FREE ENERGIE OF THE ION-ELECTRON SYSTEM (eV)
  ---------------------------------------------------
  free  energy   TOTEN  =      -515.42625660 eV

  energy  without entropy=     -515.42339607  energy(sigma->0) =     -515.42554147
 
 d Force = 0.3912733E-05[ 0.303E-05, 0.479E-05]  d Energy =-0.2609435E-05 0.652E-05
 d Force =-0.1966768E+00[-0.197E+00,-0.197E+00]  d Ewald  =-0.1966768E+00 0.684E-09


--------------------------------------------------------------------------------------------------------


    POTLOK:  cpu time    0.0389: real time    0.0389


--------------------------------------------------------------------------------------------------------




--------------------------------------------------------------------------------------------------------


  
 reached required accuracy - stopping structural energy minimisation
     LOOP+:  cpu time   21.2829: real time   21.2975
    4ORBIT:  cpu time    0.0000: real time    0.0000

 total amount of memory used by VASP on root node    76168. kBytes
========================================================================

   base      :      30000. kBytes
   nonl-proj :      27228. kBytes
   fftplans  :       2636. kBytes
   grid      :       5182. kBytes
   one-center:         46. kBytes
   wavefun   :      11076. kBytes
 
  
  
 General timing and accounting informations for this job:
 ========================================================
  
                  Total CPU time used (sec):     1572.397
                            User time (sec):     1569.506
                          System time (sec):        2.891
                         Elapsed time (sec):     1573.990
  
                   Maximum memory used (kb):      151248.
                   Average memory used (kb):           0.
  
                          Minor page faults:        52402
                          Major page faults:            0
                 Voluntary context switches:        18117
