 vasp.5.4.1 05Feb16 (build Mar 19 2020 08:54:17) complex                        
  
 executed on           IFC91_ompi date 2021.11.11  13:03:12
 running on   48 total cores
 distrk:  each k-point on   48 cores,    1 groups
 distr:  one band on NCORES_PER_BAND=  24 cores,    2 groups


--------------------------------------------------------------------------------------------------------


 INCAR:
 POTCAR:    PAW_PBE Al 04Jan2001                  
 POTCAR:    PAW_PBE Nb_sv 25May2007               
 POTCAR:    PAW_PBE Ta 17Jan2003                  
 POTCAR:    PAW_PBE Ti 08Apr2002                  
 POTCAR:   PAW_PBE Zr 08Apr2002                   
 POTCAR:    PAW_PBE O 08Apr2002                   

 ----------------------------------------------------------------------------- 
|                                                                             |
|           W    W    AA    RRRRR   N    N  II  N    N   GGGG   !!!           |
|           W    W   A  A   R    R  NN   N  II  NN   N  G    G  !!!           |
|           W    W  A    A  R    R  N N  N  II  N N  N  G       !!!           |
|           W WW W  AAAAAA  RRRRR   N  N N  II  N  N N  G  GGG   !            |
|           WW  WW  A    A  R   R   N   NN  II  N   NN  G    G                |
|           W    W  A    A  R    R  N    N  II  N    N   GGGG   !!!           |
|                                                                             |
|      For optimal performance we recommend to set                            |
|        NCORE= 4 - approx SQRT( number of cores)                             |
|      NCORE specifies how many cores store one orbital (NPAR=cpu/NCORE).     |
|      This setting can  greatly improve the performance of VASP for DFT.     |
|      The default, NPAR=number of cores might be grossly inefficient         |
|      on modern multi-core architectures or massively parallel machines.     |
|      Do your own testing !!!!                                               |
|      Unfortunately you need to use the default for GW and RPA calculations. |
|      (for HF NCORE is supported but not extensively tested yet)             |
|                                                                             |
 ----------------------------------------------------------------------------- 

 POTCAR:    PAW_PBE Al 04Jan2001                  
   VRHFIN =Al: s2p1                                                             
   LEXCH  = PE                                                                  
   EATOM  =    53.5387 eV,    3.9350 Ry                                         
                                                                                
   TITEL  = PAW_PBE Al 04Jan2001                                                
   LULTRA =        F    use ultrasoft PP ?                                      
   IUNSCR =        1    unscreen: 0-lin 1-nonlin 2-no                           
   RPACOR =    1.500    partial core radius                                     
   POMASS =   26.981; ZVAL   =    3.000    mass and valenz                      
   RCORE  =    1.900    outmost cutoff radius                                   
   RWIGS  =    2.650; RWIGS  =    1.402    wigner-seitz radius (au A)           
   ENMAX  =  240.300; ENMIN  =  180.225 eV                                      
   ICORE  =        2    local potential                                         
   LCOR   =        T    correct aug charges                                     
   LPAW   =        T    paw PP                                                  
   EAUG   =  291.052                                                            
   DEXC   =    0.000                                                            
   RMAX   =    1.939    core radius for proj-oper                               
   RAUG   =    1.300    factor for augmentation sphere                          
   RDEP   =    1.966    radius for radial grids                                 
   RDEPT  =    1.856    core radius for aug-charge                              
                                                                                
   Atomic configuration                                                         
    6 entries                                                                   
     n  l   j            E        occ.                                          
     1  0  0.50     -1511.1048   2.0000                                         
     2  0  0.50      -108.1629   2.0000                                         
     2  1  1.50       -69.6402   6.0000                                         
     3  0  0.50        -7.7528   2.0000                                         
     3  1  1.50        -2.7121   1.0000                                         
     3  2  2.50        -2.7212   0.0000                                         
   Description                                                                  
     l       E           TYP  RCUT    TYP  RCUT                                 
     0     -7.7528455     23  1.900                                             
     0     -3.3096929     23  1.900                                             
     1     -2.7120682     23  1.900                                             
     1     13.6058260     23  1.900                                             
     2     -2.7211652      7  1.900                                             
  local pseudopotential read in
  partial core-charges read in
  partial kinetic energy density read in
  atomic valenz-charges read in
  non local Contribution for L=           0  read in
    real space projection operators read in
  non local Contribution for L=           0  read in
    real space projection operators read in
  non local Contribution for L=           1  read in
    real space projection operators read in
  non local Contribution for L=           1  read in
    real space projection operators read in
    PAW grid and wavefunctions read in
 
   number of l-projection  operators is LMAX  =           4
   number of lm-projection operators is LMMAX =           8
 
 POTCAR:    PAW_PBE Nb_sv 25May2007               
   VRHFIN =Nb: 4p5s4d                                                           
   LEXCH  = PE                                                                  
   EATOM  =  1555.1913 eV,  114.3033 Ry                                         
                                                                                
   TITEL  = PAW_PBE Nb_sv 25May2007                                             
   LULTRA =        F    use ultrasoft PP ?                                      
   IUNSCR =        1    unscreen: 0-lin 1-nonlin 2-no                           
   RPACOR =    1.800    partial core radius                                     
   POMASS =   92.910; ZVAL   =   13.000    mass and valenz                      
   RCORE  =    2.400    outmost cutoff radius                                   
   RWIGS  =    2.400; RWIGS  =    1.270    wigner-seitz radius (au A)           
   ENMAX  =  293.235; ENMIN  =  219.927 eV                                      
   ICORE  =        3    local potential                                         
   LCOR   =        T    correct aug charges                                     
   LPAW   =        T    paw PP                                                  
   EAUG   =  455.659                                                            
   DEXC   =    0.000                                                            
   RMAX   =    2.456    core radius for proj-oper                               
   RAUG   =    1.300    factor for augmentation sphere                          
   RDEP   =    2.451    radius for radial grids                                 
   RDEPT  =    1.956    core radius for aug-charge                              
                                                                                
   Atomic configuration                                                         
   11 entries                                                                   
     n  l   j            E        occ.                                          
     1  0  0.50    -18805.2457   2.0000                                         
     2  0  0.50     -2630.2869   2.0000                                         
     2  1  1.50     -2348.4046   6.0000                                         
     3  0  0.50      -438.8757   2.0000                                         
     3  1  1.50      -346.7588   6.0000                                         
     3  2  2.50      -196.2560  10.0000                                         
     4  0  0.50       -58.3859   2.0000                                         
     5  0  0.50        -3.9816   1.0000                                         
     4  1  1.50       -34.5141   6.0000                                         
     4  2  2.50        -3.0408   4.0000                                         
     4  3  2.50        -1.3606   0.0000                                         
   Description                                                                  
     l       E           TYP  RCUT    TYP  RCUT                                 
     0    -58.3859094     23  2.200                                             
     0     -3.9816262     23  2.200                                             
     1    -34.5140738     23  2.200                                             
     1     13.6058260     23  2.200                                             
     2     -3.0408010     23  2.200                                             
     2     -0.1283038     23  2.200                                             
     3     -1.3605826     23  2.400                                             
  local pseudopotential read in
  partial core-charges read in
  partial kinetic energy density read in
  atomic valenz-charges read in
  non local Contribution for L=           0  read in
    real space projection operators read in
  non local Contribution for L=           0  read in
    real space projection operators read in
  non local Contribution for L=           1  read in
    real space projection operators read in
  non local Contribution for L=           1  read in
    real space projection operators read in
  non local Contribution for L=           2  read in
    real space projection operators read in
  non local Contribution for L=           2  read in
    real space projection operators read in
    PAW grid and wavefunctions read in
 
   number of l-projection  operators is LMAX  =           6
   number of lm-projection operators is LMMAX =          18
 
 POTCAR:    PAW_PBE Ta 17Jan2003                  
   VRHFIN =Ta:  6s5d                                                            
   LEXCH  = PE                                                                  
   EATOM  =   130.6506 eV,    9.6025 Ry                                         
                                                                                
   TITEL  = PAW_PBE Ta 17Jan2003                                                
   LULTRA =        F    use ultrasoft PP ?                                      
   IUNSCR =        1    unscreen: 0-lin 1-nonlin 2-no                           
   RPACOR =    2.330    partial core radius                                     
   POMASS =  180.948; ZVAL   =    5.000    mass and valenz                      
   RCORE  =    2.900    outmost cutoff radius                                   
   RWIGS  =    2.840; RWIGS  =    1.503    wigner-seitz radius (au A)           
   ENMAX  =  223.667; ENMIN  =  167.750 eV                                      
   RCLOC  =    2.205    cutoff for local pot                                    
   LCOR   =        T    correct aug charges                                     
   LPAW   =        T    paw PP                                                  
   EAUG   =  332.075                                                            
   DEXC   =    0.000                                                            
   RMAX   =    2.970    core radius for proj-oper                               
   RAUG   =    1.300    factor for augmentation sphere                          
   RDEP   =    3.060    radius for radial grids                                 
   RDEPT  =    2.354    core radius for aug-charge                              
                                                                                
   Atomic configuration                                                         
   16 entries                                                                   
     n  l   j            E        occ.                                          
     1  0  0.50    -67341.2807   2.0000                                         
     2  0  0.50    -11566.9376   2.0000                                         
     2  1  1.50    -10134.1182   6.0000                                         
     3  0  0.50     -2648.5620   2.0000                                         
     3  1  1.50     -2222.6012   6.0000                                         
     3  2  2.50     -1726.3120  10.0000                                         
     4  0  0.50      -538.6961   2.0000                                         
     4  1  1.50      -399.0129   6.0000                                         
     4  2  2.50      -220.3959  10.0000                                         
     4  3  3.50       -23.0374  14.0000                                         
     5  0  0.50       -71.2901   2.0000                                         
     5  1  1.50       -37.8225   6.0000                                         
     5  2  2.50        -2.6455   4.0000                                         
     6  0  0.50        -4.9623   1.0000                                         
     6  1  1.50        -1.3606   0.0000                                         
     5  3  2.50        -1.3606   0.0000                                         
   Description                                                                  
     l       E           TYP  RCUT    TYP  RCUT                                 
     2     -2.6455043     23  2.500                                             
     2     -0.6258895     23  2.500                                             
     0     -4.9622780     23  2.500                                             
     0      4.7531321     23  2.500                                             
     1     -1.3605826     23  2.900                                             
     1     27.2116520     23  2.900                                             
  local pseudopotential read in
  partial core-charges read in
  partial kinetic energy density read in
  atomic valenz-charges read in
  non local Contribution for L=           2  read in
    real space projection operators read in
  non local Contribution for L=           2  read in
    real space projection operators read in
  non local Contribution for L=           0  read in
    real space projection operators read in
  non local Contribution for L=           0  read in
    real space projection operators read in
  non local Contribution for L=           1  read in
    real space projection operators read in
  non local Contribution for L=           1  read in
    real space projection operators read in
    PAW grid and wavefunctions read in
 
   number of l-projection  operators is LMAX  =           6
   number of lm-projection operators is LMMAX =          18
 
 POTCAR:    PAW_PBE Ti 08Apr2002                  
   VRHFIN =Ti: d3 s1                                                            
   LEXCH  = PE                                                                  
   EATOM  =    94.7928 eV,    6.9671 Ry                                         
                                                                                
   TITEL  = PAW_PBE Ti 08Apr2002                                                
   LULTRA =        F    use ultrasoft PP ?                                      
   IUNSCR =        1    unscreen: 0-lin 1-nonlin 2-no                           
   RPACOR =    2.200    partial core radius                                     
   POMASS =   47.880; ZVAL   =    4.000    mass and valenz                      
   RCORE  =    2.800    outmost cutoff radius                                   
   RWIGS  =    2.500; RWIGS  =    1.323    wigner-seitz radius (au A)           
   ENMAX  =  178.330; ENMIN  =  133.747 eV                                      
   RCLOC  =    2.215    cutoff for local pot                                    
   LCOR   =        T    correct aug charges                                     
   LPAW   =        T    paw PP                                                  
   EAUG   =  328.883                                                            
   DEXC   =    0.000                                                            
   RMAX   =    2.868    core radius for proj-oper                               
   RAUG   =    1.300    factor for augmentation sphere                          
   RDEP   =    2.885    radius for radial grids                                 
   RDEPT  =    2.320    core radius for aug-charge                              
                                                                                
   Atomic configuration                                                         
    9 entries                                                                   
     n  l   j            E        occ.                                          
     1  0  0.50     -4865.3608   2.0000                                         
     2  0  0.50      -533.1367   2.0000                                         
     2  1  1.50      -440.5031   6.0000                                         
     3  0  0.50       -59.3186   2.0000                                         
     3  1  1.50       -35.7012   6.0000                                         
     3  2  2.50        -1.9157   3.0000                                         
     4  0  0.50        -3.7291   1.0000                                         
     4  1  1.50        -4.0817   0.0000                                         
     4  3  2.50        -1.3606   0.0000                                         
   Description                                                                  
     l       E           TYP  RCUT    TYP  RCUT                                 
     2     -1.9156924     23  2.800                                             
     2     -0.4062961     23  2.800                                             
     0     -3.7290832     23  2.800                                             
     0     20.4087390     23  2.800                                             
     1     -5.4423304     23  2.800                                             
  local pseudopotential read in
  partial core-charges read in
  partial kinetic energy density read in
  atomic valenz-charges read in
  non local Contribution for L=           2  read in
    real space projection operators read in
  non local Contribution for L=           2  read in
    real space projection operators read in
  non local Contribution for L=           0  read in
    real space projection operators read in
  non local Contribution for L=           0  read in
    real space projection operators read in
  non local Contribution for L=           1  read in
    real space projection operators read in
    PAW grid and wavefunctions read in
 
   number of l-projection  operators is LMAX  =           5
   number of lm-projection operators is LMMAX =          15
 
 POTCAR:   PAW_PBE Zr 08Apr2002                   
   VRHFIN =Zr: 5s4d5p                                                           
   LEXCH  = PE                                                                  
   EATOM  =    77.8472 eV,    5.7216 Ry                                         
                                                                                
   TITEL  = PAW_PBE Zr 08Apr2002                                                
   LULTRA =        F    use ultrasoft PP ?                                      
   IUNSCR =        1    unscreen: 0-lin 1-nonlin 2-no                           
   RPACOR =    2.200    partial core radius                                     
   POMASS =   91.224; ZVAL   =    4.000    mass and valenz                      
   RCORE  =    3.000    outmost cutoff radius                                   
   RWIGS  =    3.070; RWIGS  =    1.625    wigner-seitz radius (au A)           
   ENMAX  =  154.632; ENMIN  =  115.974 eV                                      
   RCLOC  =    2.213    cutoff for local pot                                    
   LCOR   =        T    correct aug charges                                     
   LPAW   =        T    paw PP                                                  
   EAUG   =  243.217                                                            
   DEXC   =    -.082                                                            
   RMAX   =    3.708    core radius for proj-oper                               
   RAUG   =    1.300    factor for augmentation sphere                          
   RDEP   =    3.146    radius for radial grids                                 
   QCUT   =   -3.371; QGAM   =    6.742    optimization parameters              
                                                                                
   Description                                                                  
     l     E      TYP  RCUT    TYP  RCUT                                        
     2   .000     23  3.000                                                     
     2   .000     23  3.000                                                     
     0   .000     23  3.000                                                     
     0  2.000     23  3.000                                                     
     1  -.400     23  3.000                                                     
     3   .000      7   .000                                                     
  local pseudopotential read in
  partial core-charges read in
  atomic valenz-charges read in
  non local Contribution for L=           2  read in
    real space projection operators read in
  non local Contribution for L=           2  read in
    real space projection operators read in
  non local Contribution for L=           0  read in
    real space projection operators read in
  non local Contribution for L=           0  read in
    real space projection operators read in
  non local Contribution for L=           1  read in
    real space projection operators read in
    PAW grid and wavefunctions read in
 
   number of l-projection  operators is LMAX  =           5
   number of lm-projection operators is LMMAX =          15
 
 POTCAR:    PAW_PBE O 08Apr2002                   
   VRHFIN =O: s2p4                                                              
   LEXCH  = PE                                                                  
   EATOM  =   432.3788 eV,   31.7789 Ry                                         
                                                                                
   TITEL  = PAW_PBE O 08Apr2002                                                 
   LULTRA =        F    use ultrasoft PP ?                                      
   IUNSCR =        1    unscreen: 0-lin 1-nonlin 2-no                           
   RPACOR =    1.200    partial core radius                                     
   POMASS =   16.000; ZVAL   =    6.000    mass and valenz                      
   RCORE  =    1.520    outmost cutoff radius                                   
   RWIGS  =    1.550; RWIGS  =    0.820    wigner-seitz radius (au A)           
   ENMAX  =  400.000; ENMIN  =  300.000 eV                                      
   ICORE  =        2    local potential                                         
   LCOR   =        T    correct aug charges                                     
   LPAW   =        T    paw PP                                                  
   EAUG   =  605.392                                                            
   DEXC   =    0.000                                                            
   RMAX   =    1.553    core radius for proj-oper                               
   RAUG   =    1.300    factor for augmentation sphere                          
   RDEP   =    1.550    radius for radial grids                                 
   RDEPT  =    1.329    core radius for aug-charge                              
                                                                                
   Atomic configuration                                                         
    4 entries                                                                   
     n  l   j            E        occ.                                          
     1  0  0.50      -514.6923   2.0000                                         
     2  0  0.50       -23.9615   2.0000                                         
     2  1  0.50        -9.0305   4.0000                                         
     3  2  1.50        -9.5241   0.0000                                         
   Description                                                                  
     l       E           TYP  RCUT    TYP  RCUT                                 
     0    -23.9615318     23  1.200                                             
     0     -9.5240782     23  1.200                                             
     1     -9.0304911     23  1.520                                             
     1      8.1634956     23  1.520                                             
     2     -9.5240782      7  1.500                                             
  local pseudopotential read in
  partial core-charges read in
  partial kinetic energy density read in
  kinetic energy density of atom read in
  atomic valenz-charges read in
  non local Contribution for L=           0  read in
    real space projection operators read in
  non local Contribution for L=           0  read in
    real space projection operators read in
  non local Contribution for L=           1  read in
    real space projection operators read in
  non local Contribution for L=           1  read in
    real space projection operators read in
    PAW grid and wavefunctions read in
 
   number of l-projection  operators is LMAX  =           4
   number of lm-projection operators is LMMAX =           8
 

 ----------------------------------------------------------------------------- 
|                                                                             |
|  ADVICE TO THIS USER RUNNING 'VASP/VAMP'   (HEAR YOUR MASTER'S VOICE ...):  |
|                                                                             |
|      You have a (more or less) 'large supercell' and for larger cells       |
|      it might be more efficient to use real space projection opertators     |
|      So try LREAL= Auto  in the INCAR   file.                               |
|      Mind: At the moment your POTCAR file does not contain real space       |
|       projectors, and has to be modified,  BUT if you                       |
|      want to do an extremely  accurate calculation you might also keep the  |
|      reciprocal projection scheme          (i.e. LREAL=.FALSE.)             |
|                                                                             |
 ----------------------------------------------------------------------------- 

 WARNING: PSMAXN for non-local potential too small
          PSMAXN should be >   12.5490833729506       NTYP=           5
  PAW_PBE Al 04Jan2001                  :
 energy of atom  1       EATOM=  -53.5387
 kinetic energy error for atom=    0.0002 (will be added to EATOM!!)
  PAW_PBE Nb_sv 25May2007               :
 energy of atom  2       EATOM=-1555.1913
 kinetic energy error for atom=    0.0037 (will be added to EATOM!!)
  PAW_PBE Ta 17Jan2003                  :
 energy of atom  3       EATOM= -130.6506
 kinetic energy error for atom=    0.0004 (will be added to EATOM!!)
  PAW_PBE Ti 08Apr2002                  :
 energy of atom  4       EATOM=  -94.7928
 kinetic energy error for atom=    0.0001 (will be added to EATOM!!)
 PAW_PBE Zr 08Apr2002                   :
 energy of atom  5       EATOM=  -77.8472
 kinetic energy error for atom=    0.0001 (will be added to EATOM!!)
  PAW_PBE O 08Apr2002                   :
 energy of atom  6       EATOM= -432.3788
 kinetic energy error for atom=    0.0168 (will be added to EATOM!!)
 
 
 POSCAR: Al Nb Ta Ti Zr                          
  positions in direct lattice
  velocities in cartesian coordinates
 exchange correlation table for  LEXCH =        8
   RHO(1)=    0.500       N(1)  =     2000
   RHO(2)=  100.500       N(2)  =     4000
 


--------------------------------------------------------------------------------------------------------


 ion  position               nearest neighbor table
   1  0.623  0.867  0.376-  34 2.83  25 2.88  24 2.88   9 2.88  13 2.90   4 2.91  61 2.93  15 3.16
                            41 3.35  17 3.40
   2  0.621  0.393  0.547-  31 2.78  14 2.79  33 2.80  26 2.80  23 2.81  10 2.90   7 2.90  62 2.98
                            18 3.15  16 3.17   3 3.17  17 3.18  42 3.36
   3  0.617  0.635  0.625-  32 2.84  23 2.87  33 2.87   8 2.89  14 2.89  26 2.97  27 3.04   2 3.17
                            45 3.23
   4  0.618  0.084  0.450-  31 2.80  24 2.86  34 2.87  13 2.88   1 2.91  10 2.91  25 2.92   7 2.92
                            62 2.98  28 3.16  12 3.17  46 3.24
   5  0.981  0.640  0.554-  27 2.75  30 2.80  42 2.96  56 2.96  52 3.01  59 3.03  54 3.06  63 3.10
                            47 3.12  58 3.23  57 3.34
   6  0.980  0.121  0.378-  29 2.80  28 2.80  53 2.91  41 2.96  51 3.05  55 3.05  60 3.08  57 3.37

   7  0.729  0.343  0.458-  28 2.77  29 2.83  31 2.85  17 2.89  11 2.90   2 2.90   4 2.92  62 3.04
                            63 3.07  42 3.09
   8  0.721  0.897  0.621-  30 2.64  12 2.70  18 2.78  32 2.80  27 2.87   3 2.89  64 3.01  62 3.18

   9  0.517  0.608  0.367-  35 2.84  15 2.85  17 2.87   1 2.88  11 2.89  61 2.95  43 3.10
  10  0.513  0.133  0.539-  18 2.73  36 2.77  16 2.83  12 2.87   2 2.90   4 2.91  31 2.93  46 2.93
                            62 3.06  44 3.12
  11  0.618  0.343  0.369-  24 2.75  34 2.83  31 2.87   9 2.89   7 2.90  61 2.96  43 3.27
  12  0.618  0.874  0.538-   8 2.70  32 2.72  13 2.73  25 2.81  23 2.82  10 2.87  33 2.88  62 2.93
                             4 3.17  44 3.36
  13  0.742  0.843  0.462-  12 2.73  17 2.87   4 2.88   1 2.90  28 2.94  30 2.94  23 2.95  63 2.98
                            41 3.05  57 3.27  62 3.47
  14  0.741  0.391  0.628-   2 2.79  27 2.80  42 2.84  18 2.88   3 2.89  64 2.90  58 3.01
  15  0.394  0.847  0.369-  22 2.68  19 2.76  25 2.83  34 2.84   9 2.85  39 2.98   1 3.16  46 3.43

  16  0.392  0.371  0.542-  20 2.65  21 2.66  26 2.75  10 2.83  33 2.85  37 2.87  31 2.89  40 3.06
                             2 3.17
  17  0.619  0.602  0.458-  25 2.81  23 2.81  33 2.82  31 2.85   9 2.87  13 2.87   7 2.89  61 2.95
                            35 3.03   2 3.18   1 3.40  63 3.44
  18  0.619  0.148  0.623-  10 2.73   8 2.78  26 2.78  32 2.79  62 2.82  14 2.88  36 3.07   2 3.15
                            64 3.31
  19  0.279  0.834  0.451-  15 2.76  35 2.94  46 2.96  39 2.97  25 2.99  44 3.02  60 3.07  51 3.08
                            47 3.12  56 3.17  21 3.27
  20  0.285  0.378  0.622-  16 2.65  36 2.80  45 2.87  26 2.92  59 3.01  52 3.05  48 3.05  40 3.10
                            21 3.17
  21  0.278  0.595  0.535-  65 2.09  16 2.66  35 2.87  52 2.95  45 2.96  37 2.97  47 2.97  44 3.02
                            56 3.04  33 3.06  59 3.09  20 3.17  19 3.27
  22  0.283  0.077  0.361-  15 2.68  46 2.97  43 2.97  34 2.99  51 3.02  55 3.10  60 3.10
  23  0.737  0.634  0.540-  27 2.70  30 2.78   2 2.81  17 2.81  12 2.82   3 2.87  63 2.93  13 2.95
                            42 3.00
  24  0.740  0.115  0.366-  29 2.73  11 2.75  28 2.85   4 2.86   1 2.88  41 3.00
  25  0.496  0.836  0.458-  35 2.78  12 2.81  17 2.81  15 2.83   1 2.88   4 2.92  19 2.99  46 2.99
                            44 3.01  33 3.02
  26  0.497  0.378  0.627-  36 2.73  16 2.75  18 2.78   2 2.80  20 2.92   3 2.97  45 2.98
  27  0.838  0.648  0.624-  23 2.70  58 2.72   5 2.75  14 2.80   8 2.87  30 2.89   3 3.04  54 3.20
                            42 3.37
  28  0.847  0.110  0.455-   7 2.77  62 2.80   6 2.80  24 2.85  57 2.90  13 2.94  53 2.98  29 3.15
                             4 3.16  50 3.25  41 3.36
  29  0.852  0.349  0.376-  24 2.73   6 2.80   7 2.83  53 2.94  61 2.98  49 3.07  28 3.15  63 3.25

  30  0.853  0.868  0.553-   8 2.64  23 2.78   5 2.80  27 2.89  54 2.91  13 2.94  57 2.97  62 3.00
                            50 3.04  64 3.41
  31  0.522  0.339  0.461-   2 2.78   4 2.80  17 2.85   7 2.85  35 2.86  11 2.87  16 2.89  10 2.93
                            46 2.95  43 3.11
  32  0.518  0.895  0.623-  12 2.72  18 2.79   8 2.80  36 2.83   3 2.84  44 2.85  45 3.04
  33  0.499  0.626  0.540-   2 2.80  17 2.82  35 2.83  16 2.85   3 2.87  12 2.88  45 2.91  44 2.95
                            25 3.02  21 3.06
  34  0.499  0.102  0.365-  11 2.83   1 2.83  15 2.84   4 2.87  43 2.91  46 2.98  22 2.99
  35  0.400  0.580  0.451-  25 2.78  33 2.83   9 2.84  31 2.86  21 2.87  37 2.88  39 2.93  19 2.94
                            17 3.03  43 3.08
  36  0.396  0.133  0.621-  26 2.73  10 2.77  20 2.80  32 2.83  40 2.87  38 3.00  18 3.07  44 3.19

  37  0.255  0.366  0.464-  16 2.87  35 2.88  21 2.97  47 3.02  60 3.04  52 3.05  43 3.05  55 3.08
                            46 3.08  40 3.27  39 3.39
  38  0.236  0.923  0.630-  65 2.05  56 2.87  40 2.98  36 3.00  44 3.00  59 3.12  48 3.19  54 3.21
                            45 3.35
  39  0.252  0.614  0.376-  35 2.93  19 2.97  15 2.98  47 3.07  43 3.07  51 3.07  55 3.08  37 3.39
                            49 3.53
  40  0.243  0.135  0.551-  36 2.87  38 2.98  52 3.02  16 3.06  48 3.08  44 3.08  20 3.10  60 3.10
                            56 3.14  37 3.27  46 3.29  50 3.43
  41  0.865  0.859  0.370-   6 2.96  24 3.00  61 3.05  13 3.05  57 3.06  49 3.12   1 3.35  28 3.36
                            51 3.49  63 3.53
  42  0.865  0.380  0.546-  14 2.84   5 2.96  62 3.00  23 3.00  58 3.03   7 3.09  50 3.12  63 3.16
                            53 3.20  64 3.33   2 3.36  27 3.37  52 3.49
  43  0.381  0.352  0.373-  34 2.91  22 2.97  37 3.05  39 3.07  35 3.08   9 3.10  31 3.11  55 3.26
                            11 3.27  46 3.29
  44  0.375  0.876  0.548-  65 2.28  32 2.85  33 2.95  38 3.00  25 3.01  19 3.02  21 3.02  40 3.08
                            10 3.12  45 3.14  36 3.19  56 3.25  46 3.35  12 3.36
  45  0.383  0.643  0.627-  65 2.25  20 2.87  33 2.91  21 2.96  26 2.98  32 3.04  44 3.14   3 3.23
                            59 3.25  38 3.35
  46  0.384  0.104  0.456-  10 2.93  31 2.95  19 2.96  22 2.97  34 2.98  25 2.99  37 3.08   4 3.24
                            60 3.27  40 3.29  43 3.29  44 3.35  15 3.43
  47  0.117  0.611  0.465-  21 2.97  37 3.02  39 3.07  56 3.10  19 3.12   5 3.12  52 3.14  53 3.14
                            49 3.15  57 3.17  63 3.42  51 3.52  55 3.80
  48  0.105  0.197  0.636-  50 3.03  58 3.03  20 3.05  52 3.05  40 3.08  38 3.19  54 3.34  64 3.44

  49  0.996  0.593  0.368-  63 3.05  29 3.07  41 3.12  47 3.15  51 3.16  55 3.23  53 3.44  39 3.53
                            61 3.65  57 3.82
  50  0.995  0.112  0.546-  48 3.03  30 3.04  64 3.05  42 3.12  54 3.13  57 3.19  52 3.20  28 3.25
                            56 3.27  53 3.32  60 3.38  40 3.43  62 3.58
  51  0.119  0.872  0.375-  60 3.00  22 3.02   6 3.05  39 3.07  19 3.08  57 3.16  49 3.16  41 3.49
                            47 3.52
  52  0.118  0.395  0.550-  21 2.95   5 3.01  40 3.02  59 3.04  37 3.05  20 3.05  48 3.05  47 3.14
                            53 3.20  50 3.20  58 3.45  42 3.49
  53  1.000  0.331  0.453-   6 2.91  29 2.94  28 2.98  60 3.06  63 3.08  55 3.09  47 3.14  52 3.20
                            42 3.20  50 3.32  49 3.44
  54  0.005  0.881  0.626-  30 2.91  56 3.00   5 3.06  50 3.13  59 3.15  27 3.20  64 3.20  38 3.21
                            48 3.34
  55  0.145  0.332  0.368-   6 3.05  37 3.08  39 3.08  53 3.09  22 3.10  49 3.23  60 3.24  43 3.26
                            47 3.80
  56  0.140  0.843  0.542-  65 2.27  38 2.87   5 2.96  54 3.00  21 3.04  57 3.09  47 3.10  59 3.13
                            40 3.14  19 3.17  44 3.25  50 3.27  60 3.47
  57  0.979  0.876  0.465-  28 2.90  30 2.97  41 3.06  56 3.09  63 3.11  60 3.13  51 3.16  47 3.17
                            50 3.19  13 3.27   5 3.34   6 3.37  49 3.82
  58  0.956  0.428  0.644-  27 2.72  14 3.01  42 3.03  48 3.03  64 3.09   5 3.23  59 3.27  52 3.45

  59  0.147  0.623  0.626-  65 2.23  20 3.01   5 3.03  52 3.04  21 3.09  38 3.12  56 3.13  54 3.15
                            45 3.25  58 3.27
  60  0.147  0.092  0.451-  51 3.00  37 3.04  53 3.06  19 3.07   6 3.08  40 3.10  22 3.10  57 3.13
                            55 3.24  46 3.27  50 3.38  56 3.47
  61  0.731  0.606  0.367-   1 2.93  17 2.95   9 2.95  11 2.96  29 2.98  41 3.05  63 3.17  49 3.65

  62  0.735  0.129  0.539-  28 2.80  18 2.82  12 2.93   2 2.98   4 2.98  42 3.00  30 3.00   7 3.04
                            10 3.06  64 3.10   8 3.18  13 3.47  50 3.58
  63  0.869  0.592  0.458-  23 2.93  13 2.98  49 3.05   7 3.07  53 3.08   5 3.10  57 3.11  42 3.16
                            61 3.17  29 3.25  47 3.42  17 3.44  41 3.53
  64  0.858  0.139  0.633-  14 2.90   8 3.01  50 3.05  58 3.09  62 3.10  54 3.20  18 3.31  42 3.33
                            30 3.41  48 3.44
  65  0.260  0.750  0.588-  38 2.05  21 2.09  59 2.23  45 2.25  56 2.27  44 2.28
 
  LATTYP: Found a simple orthorhombic cell.
 ALAT       =     9.5644817352
 B/A-ratio  =     1.4398428730
 C/A-ratio  =     2.8922184390
  
  Lattice vectors:
  
 A1 = (   0.0000000000,  -9.5644817352,   0.0000000000)
 A2 = ( -13.7713508606,   0.0000000000,   0.0000000000)
 A3 = (   0.0000000000,   0.0000000000, -27.6625704340)


Analysis of symmetry for initial positions (statically):
=====================================================================
 Subroutine PRICEL returns:
 Original cell was already a primitive cell.
 

 Routine SETGRP: Setting up the symmetry group for a 
 simple orthorhombic supercell.


 Subroutine GETGRP returns: Found  1 space group operations
 (whereof  1 operations were pure point group operations)
 out of a pool of  8 trial point group operations.


The static configuration has the point symmetry C_1 .


Analysis of symmetry for dynamics (positions and initial velocities):
=====================================================================
 Subroutine PRICEL returns:
 Original cell was already a primitive cell.
 

 Routine SETGRP: Setting up the symmetry group for a 
 simple orthorhombic supercell.


 Subroutine GETGRP returns: Found  1 space group operations
 (whereof  1 operations were pure point group operations)
 out of a pool of  8 trial point group operations.


The dynamic configuration has the point symmetry C_1 .


Analysis of constrained symmetry for selective dynamics:
=====================================================================
 Subroutine PRICEL returns:
 Original cell was already a primitive cell.
 

 Routine SETGRP: Setting up the symmetry group for a 
 simple orthorhombic supercell.


 Subroutine GETGRP returns: Found  1 space group operations
 (whereof  1 operations were pure point group operations)
 out of a pool of  8 trial point group operations.


The constrained configuration has the point symmetry C_1 .


 Subroutine INISYM returns: Found  1 space group operations
 (whereof  1 operations are pure point group operations),
 and found     1 'primitive' translations

 
 
 KPOINTS: k-points                                

Automatic generation of k-mesh.
Space group operators:
 irot       det(A)        alpha          n_x          n_y          n_z        tau_x        tau_y        tau_z
    1     1.000000     0.000000     1.000000     0.000000     0.000000     0.000000     0.000000     0.000000
 
 Subroutine IBZKPT returns following result:
 ===========================================
 
 Found      5 irreducible k-points:
 
 Following reciprocal coordinates:
            Coordinates               Weight
  0.000000  0.000000  0.000000      1.000000
  0.333333  0.000000  0.000000      2.000000
  0.000000  0.333333  0.000000      2.000000
  0.333333  0.333333  0.000000      2.000000
 -0.333333  0.333333  0.000000      2.000000
 
 Following cartesian coordinates:
            Coordinates               Weight
  0.000000  0.000000  0.000000      1.000000
  0.024205  0.000000  0.000000      2.000000
  0.000000  0.034851  0.000000      2.000000
  0.024205  0.034851  0.000000      2.000000
 -0.024205  0.034851  0.000000      2.000000
 


--------------------------------------------------------------------------------------------------------




 Dimension of arrays:
   k-points           NKPTS =      5   k-points in BZ     NKDIM =      5   number of bands    NBANDS=    210
   number of dos      NEDOS =    301   number of ions     NIONS =     65
   non local maximal  LDIM  =      6   non local SUM 2l+1 LMDIM =     18
   total plane-waves  NPLWV = 846720
   max r-space proj   IRMAX =      1   max aug-charges    IRDMAX=  25433
   dimension x,y,z NGX =    84 NGY =   60 NGZ =  168
   dimension x,y,z NGXF=   168 NGYF=  120 NGZF=  336
   support grid    NGXF=   168 NGYF=  120 NGZF=  336
   ions per type =               6  10   4  18  26   1
 NGX,Y,Z   is equivalent  to a cutoff of  10.14, 10.43, 10.10 a.u.
 NGXF,Y,Z  is equivalent  to a cutoff of  20.28, 20.86, 20.19 a.u.


 I would recommend the setting:
   dimension x,y,z NGX =    83 NGY =   57 NGZ =  166
 SYSTEM =  (110) surface                           
 POSCAR =  Al Nb Ta Ti Zr                          

 Startparameter for this run:
   NWRITE =      2    write-flag & timer
   PREC   = normal    normal or accurate (medium, high low for compatibility)
   ISTART =      0    job   : 0-new  1-cont  2-samecut
   ICHARG =      2    charge: 1-file 2-atom 10-const
   ISPIN  =      1    spin polarized calculation?
   LNONCOLLINEAR =      F non collinear calculations
   LSORBIT =      F    spin-orbit coupling
   INIWAV =      1    electr: 0-lowe 1-rand  2-diag
   LASPH  =      F    aspherical Exc in radial PAW
   METAGGA=      F    non-selfconsistent MetaGGA calc.

 Electronic Relaxation 1
   ENCUT  =  600.0 eV  44.10 Ry    6.64 a.u.  27.50 19.10 55.25*2*pi/ulx,y,z
   ENINI  =  600.0     initial cutoff
   ENAUG  =  605.4 eV  augmentation charge cutoff
   NELM   =     60;   NELMIN=  2; NELMDL= -5     # of ELM steps 
   EDIFF  = 0.1E-03   stopping-criterion for ELM
   LREAL  =      F    real-space projection
   NLSPLINE    = F    spline interpolate recip. space projectors
   LCOMPAT=      F    compatible to vasp.4.4
   GGA_COMPAT  = T    GGA compatible to vasp.4.4-vasp.4.6
   LMAXPAW     = -100 max onsite density
   LMAXMIX     =    2 max onsite mixed and CHGCAR
   VOSKOWN=      0    Vosko Wilk Nusair interpolation
   ROPT   =    0.00000   0.00000   0.00000   0.00000
   ROPT   =    0.00000   0.00000
 Ionic relaxation
   EDIFFG = -.1E-01   stopping-criterion for IOM
   NSW    =    200    number of steps for IOM
   NBLOCK =      1;   KBLOCK =    200    inner block; outer block 
   IBRION =      2    ionic relax: 0-MD 1-quasi-New 2-CG
   NFREE  =      1    steps in history (QN), initial steepest desc. (CG)
   ISIF   =      2    stress and relaxation
   IWAVPR =     11    prediction:  0-non 1-charg 2-wave 3-comb
   ISYM   =      2    0-nonsym 1-usesym 2-fastsym
   LCORR  =      T    Harris-Foulkes like correction to forces

   POTIM  = 0.1000    time-step for ionic-motion
   TEIN   =    0.0    initial temperature
   TEBEG  =    0.0;   TEEND  =   0.0 temperature during run
   SMASS  =  -3.00    Nose mass-parameter (am)
   estimated Nose-frequenzy (Omega)   =  0.10E-29 period in steps =****** mass=  -0.433E-26a.u.
   SCALEE = 1.0000    scale energy and forces
   NPACO  =    256;   APACO  = 16.0  distance and # of slots for P.C.
   PSTRESS=    0.0 pullay stress

  Mass of Ions in am
   POMASS =  26.98 92.91180.95 47.88 91.22 16.00
  Ionic Valenz
   ZVAL   =   3.00 13.00  5.00  4.00  4.00  6.00
  Atomic Wigner-Seitz radii
   RWIGS  =  -1.00 -1.00 -1.00 -1.00 -1.00 -1.00
  virtual crystal weights 
   VCA    =   1.00  1.00  1.00  1.00  1.00  1.00
   NELECT =     350.0000    total number of electrons
   NUPDOWN=      -1.0000    fix difference up-down

 DOS related values:
   EMIN   =  10.00;   EMAX   =-10.00  energy-range for DOS
   EFERMI =   0.00
   ISMEAR =     2;   SIGMA  =   0.10  broadening in eV -4-tet -1-fermi 0-gaus

 Electronic relaxation 2 (details)
   IALGO  =     68    algorithm
   LDIAG  =      T    sub-space diagonalisation (order eigenvalues)
   LSUBROT=      F    optimize rotation matrix (better conditioning)
   TURBO    =      0    0=normal 1=particle mesh
   IRESTART =      0    0=no restart 2=restart with 2 vectors
   NREBOOT  =      0    no. of reboots
   NMIN     =      0    reboot dimension
   EREF     =   0.00    reference energy to select bands
   IMIX   =      4    mixing-type and parameters
     AMIX     =   0.40;   BMIX     =  1.00
     AMIX_MAG =   1.60;   BMIX_MAG =  1.00
     AMIN     =   0.10
     WC   =   100.;   INIMIX=   1;  MIXPRE=   1;  MAXMIX= -45

 Intra band minimization:
   WEIMIN = 0.0010     energy-eigenvalue tresh-hold
   EBREAK =  0.12E-06  absolut break condition
   DEPER  =   0.30     relativ break condition  

   TIME   =   0.40     timestep for ELM

  volume/ion in A,a.u.               =      56.06       378.28
  Fermi-wavevector in a.u.,A,eV,Ry     =   0.749757  1.416836  7.648324  0.562136
  Thomas-Fermi vector in A             =   1.846351
 
 Write flags
   LWAVE  =      F    write WAVECAR
   LCHARG =      F    write CHGCAR
   LVTOT  =      F    write LOCPOT, total local potential
   LVHAR  =      F    write LOCPOT, Hartree potential only
   LELF   =      F    write electronic localiz. function (ELF)
   LORBIT =      0    0 simple, 1 ext, 2 COOP (PROOUT)


 Dipole corrections
   LMONO  =      F    monopole corrections only (constant potential shift)
   LDIPOL =      F    correct potential (dipole corrections)
   IDIPOL =      0    1-x, 2-y, 3-z, 4-all directions 
   EPSILON=  1.0000000 bulk dielectric constant

 Exchange correlation treatment:
   GGA     =    --    GGA type
   LEXCH   =     8    internal setting for exchange type
   VOSKOWN=      0    Vosko Wilk Nusair interpolation
   LHFCALC =     F    Hartree Fock is set to
   LHFONE  =     F    Hartree Fock one center treatment
   AEXX    =    0.0000 exact exchange contribution

 Linear response parameters
   LEPSILON=     F    determine dielectric tensor
   LRPA    =     F    only Hartree local field effects (RPA)
   LNABLA  =     F    use nabla operator in PAW spheres
   LVEL    =     F    velocity operator in full k-point grid
   LINTERFAST=   F  fast interpolation
   KINTER  =     0    interpolate to denser k-point grid
   CSHIFT  =0.1000    complex shift for real part using Kramers Kronig
   OMEGAMAX=  -1.0    maximum frequency
   DEG_THRESHOLD= 0.2000000E-02 threshold for treating states as degnerate
   RTIME   =    0.100 relaxation time in fs

 Orbital magnetization related:
   ORBITALMAG=     F  switch on orbital magnetization
   LCHIMAG   =     F  perturbation theory with respect to B field
   DQ        =  0.001000  dq finite difference perturbation B field



--------------------------------------------------------------------------------------------------------


 conjugate gradient relaxation of ions
   using selective dynamics as specified on POSCAR
 charge density and potential will be updated during run
 non-spin polarized calculation
 RMM-DIIS sequential band-by-band and
  variant of blocked Davidson during initial phase
 perform sub-space diagonalisation
    before iterative eigenvector-optimisation
 modified Broyden-mixing scheme, WC =      100.0
 initial mixing is a Kerker type mixing with AMIX =  0.4000 and BMIX =      1.0000
 Hartree-type preconditioning will be used
 using additional bands           35
 reciprocal scheme for non local part
 use partial core corrections
 calculate Harris-corrections to forces 
   (improved forces if not selfconsistent)
 use gradient corrections 
 use of overlap-Matrix (Vanderbilt PP)
 Methfessel and Paxton  Order N= 2 SIGMA  =   0.10


--------------------------------------------------------------------------------------------------------


  energy-cutoff  :      600.00
  volume of cell :     3643.60
      direct lattice vectors                 reciprocal lattice vectors
    13.771350861  0.000000000  0.000000000     0.072614518  0.000000000  0.000000000
     0.000000000  9.564481735  0.000000000     0.000000000  0.104553496  0.000000000
     0.000000000  0.000000000 27.662570434     0.000000000  0.000000000  0.036149931

  length of vectors
    13.771350861  9.564481735 27.662570434     0.072614518  0.104553496  0.036149931


 
 k-points in units of 2pi/SCALE and weight: k-points                                
   0.00000000  0.00000000  0.00000000       0.111
   0.02420484  0.00000000  0.00000000       0.222
   0.00000000  0.03485117  0.00000000       0.222
   0.02420484  0.03485117  0.00000000       0.222
  -0.02420484  0.03485117  0.00000000       0.222
 
 k-points in reciprocal lattice and weights: k-points                                
   0.00000000  0.00000000  0.00000000       0.111
   0.33333333  0.00000000  0.00000000       0.222
   0.00000000  0.33333333  0.00000000       0.222
   0.33333333  0.33333333  0.00000000       0.222
  -0.33333333  0.33333333  0.00000000       0.222
 
 position of ions in fractional coordinates (direct lattice) 
   0.62276447  0.86746430  0.37590333
   0.62110684  0.39282943  0.54676382
   0.61746043  0.63478297  0.62509390
   0.61839700  0.08363760  0.44965952
   0.98062617  0.63958941  0.55421798
   0.97963780  0.12056648  0.37767599
   0.72857308  0.34338307  0.45816820
   0.72088927  0.89708079  0.62097609
   0.51739597  0.60805875  0.36719826
   0.51347102  0.13342090  0.53935978
   0.61811078  0.34297293  0.36889183
   0.61819054  0.87377246  0.53815371
   0.74231148  0.84345710  0.46199300
   0.74133510  0.39077747  0.62792460
   0.39405298  0.84738672  0.36896032
   0.39162768  0.37115948  0.54224738
   0.61928761  0.60162497  0.45752798
   0.61893963  0.14752592  0.62275185
   0.27944195  0.83362269  0.45088327
   0.28510417  0.37841772  0.62210189
   0.27821470  0.59517702  0.53534418
   0.28324246  0.07725573  0.36149931
   0.73672075  0.63390309  0.54003145
   0.74002355  0.11549973  0.36646499
   0.49591756  0.83582580  0.45790018
   0.49657563  0.37815894  0.62675351
   0.83770092  0.64833127  0.62365408
   0.84724605  0.11017048  0.45460239
   0.85243583  0.34907103  0.37639265
   0.85331411  0.86803278  0.55256476
   0.52175105  0.33942658  0.46105252
   0.51764222  0.89459318  0.62252322
   0.49908519  0.62628231  0.53962068
   0.49943882  0.10200214  0.36464270
   0.40016663  0.58028412  0.45130253
   0.39649157  0.13292463  0.62084931
   0.25505811  0.36595738  0.46399110
   0.23611244  0.92258226  0.62982287
   0.25182599  0.61397660  0.37627308
   0.24257461  0.13539744  0.55108329
   0.86539888  0.85904646  0.37036829
   0.86503044  0.38033962  0.54585641
   0.38059813  0.35186696  0.37331264
   0.37531167  0.87630265  0.54775355
   0.38282708  0.64301477  0.62727678
   0.38408008  0.10357511  0.45579618
   0.11657381  0.61110574  0.46457054
   0.10488721  0.19683054  0.63618073
   0.99629861  0.59295863  0.36811234
   0.99453982  0.11215919  0.54621715
   0.11869311  0.87196302  0.37467704
   0.11794364  0.39534298  0.54992956
   0.99977952  0.33051389  0.45306987
   0.00479331  0.88050717  0.62576256
   0.14482272  0.33176249  0.36788561
   0.14041335  0.84308239  0.54194367
   0.97888047  0.87608504  0.46520830
   0.95558473  0.42844770  0.64430565
   0.14706051  0.62277710  0.62552485
   0.14721048  0.09173214  0.45072276
   0.73135245  0.60578495  0.36679988
   0.73545194  0.12899008  0.53903297
   0.86923259  0.59196168  0.45825814
   0.85822044  0.13918520  0.63276177
   0.26047784  0.74956236  0.58797436
 
 position of ions in cartesian coordinates  (Angst):
   8.57630799  8.29684649 10.39845223
   8.55348023  3.75720994 15.12489257
   8.50326419  6.07137012 17.29170391
   8.51616202  0.79995025 12.43873821
  13.50454707  6.11734125 15.33109381
  13.49093588  1.15315590 10.44748880
  10.03343557  3.28428114 12.67411000
   9.92761907  8.58011283 17.17779477
   7.12524148  5.81576681 10.15764776
   7.07118959  1.27610174 14.92007792
   8.51222037  3.28035836 10.20449636
   8.51331876  8.35718069 14.88671504
  10.22263181  8.06723005 12.77991378
  10.20918572  3.73758399 17.37000860
   5.42664188  8.10481479 10.20639088
   5.39324212  3.54994810 14.99995622
   8.52842696  5.75423100 12.65640004
   8.52363481  1.41100896 17.22691692
   3.84829318  7.97316903 12.47259035
   3.92626955  3.61936936 17.20893723
   3.83139222  5.69255972 14.80899606
   3.90063135  0.73891098 10.00000000
  10.14563992  6.06295448 14.93865799
  10.19112400  1.10469510 10.13736353
   6.82945470  7.99424061 12.66669595
   6.83851718  3.61689432 17.33761298
  11.53627334  6.20095264 17.25187486
  11.66772263  1.05372358 12.57547056
  11.73919286  3.33868345 10.41198829
  11.75128806  8.30228372 15.28536149
   7.18521672  3.24643930 12.75389771
   7.12863258  8.55632017 17.22059246
   6.87307728  5.99006567 14.92729497
   6.87794726  0.97559764 10.08695433
   5.51083508  5.55011685 12.48418803
   5.46022458  1.27135518 17.17428784
   3.51249472  3.50019267 12.83518635
   3.25158727  8.82402116 17.42251959
   3.46798404  5.87236796 10.40868071
   3.34058010  1.29500636 15.24438019
  11.91771166  8.21633417 10.24533883
  11.91263769  3.63775139 15.09979126
   5.24135036  3.36542512 10.32678719
   5.16854864  8.38138066 15.15227118
   5.27204600  6.15010302 17.35208806
   5.28930157  0.99064225 12.60849381
   1.60537885  5.84490969 12.85121538
   1.44443863  1.88258208 17.59839433
  13.72037774  5.67134198 10.18293350
  13.69615686  1.07274448 15.10977051
   1.63456451  8.33987442 10.36453009
   1.62424329  3.78125073 15.21246532
  13.76831459  3.16119411 12.53307716
   0.06601040  8.42159475 17.31020088
   1.99440444  3.17313630 10.17666150
   1.93368154  8.06364609 14.99155498
  13.48050634  8.37929939 12.86885734
  13.15969262  4.09788017 17.82315035
   2.02522195  5.95654024 17.30362516
   2.02728715  0.87737042 12.46815015
  10.07171117  5.79401911 10.14662739
  10.12816674  1.23372328 14.91103744
  11.97050705  5.66180669 12.67659812
  11.81885475  1.33123435 17.50381712
   3.58713179  7.16917551 16.26488219
 


--------------------------------------------------------------------------------------------------------


 k-point  1 :   0.0000 0.0000 0.0000  plane waves:  121663
 k-point  2 :   0.3333 0.0000 0.0000  plane waves:  121577
 k-point  3 :   0.0000 0.3333 0.0000  plane waves:  121622
 k-point  4 :   0.3333 0.3333 0.0000  plane waves:  121647
 k-point  5 :  -0.3333 0.3333 0.0000  plane waves:  121647

 maximum and minimum number of plane-waves per node :      5107     5041

 maximum number of plane-waves:    121663
 maximum index in each direction: 
   IXMAX=   27   IYMAX=   19   IZMAX=   55
   IXMIN=  -27   IYMIN=  -19   IZMIN=  -55

 WARNING: aliasing errors must be expected set NGX to 110 to avoid them
 WARNING: aliasing errors must be expected set NGY to  78 to avoid them
 WARNING: aliasing errors must be expected set NGZ to 222 to avoid them
 aliasing errors are usually negligible using standard VASP settings
 and one can safely disregard these warnings

 parallel 3D FFT for wavefunctions:
    minimum data exchange during FFTs selected (reduces bandwidth)
 parallel 3D FFT for charge:
    minimum data exchange during FFTs selected (reduces bandwidth)


 total amount of memory used by VASP on root node   122660. kBytes
========================================================================

   base      :      30000. kBytes
   nonl-proj :      27196. kBytes
   fftplans  :       6516. kBytes
   grid      :      15878. kBytes
   one-center:         46. kBytes
   wavefun   :      43024. kBytes
 
     INWAV:  cpu time    0.0000: real time    0.0000
 Broyden mixing: mesh for mixing (old mesh)
   NGX = 55   NGY = 39   NGZ =111
  (NGX  =168   NGY  =120   NGZ  =336)
  gives a total of 238095 points

 initial charge density was supplied:
 charge density of overlapping atoms calculated
 number of electron     350.0000000 magnetization 
 keeping initial charge density in first step


--------------------------------------------------------------------------------------------------------


 Maximum index for augmentation-charges         1033 (set IRDMAX)


--------------------------------------------------------------------------------------------------------


 First call to EWALD:  gamma=   0.115
 Maximum number of real-space cells 3x 4x 2
 Maximum number of reciprocal cells 3x 2x 5

 FEWALD executed in parallel
    FEWALD:  cpu time    0.0024: real time    0.0024


----------------------------------------- Iteration    1(   1)  ---------------------------------------


    POTLOK:  cpu time    0.1141: real time    0.1205
    SETDIJ:  cpu time    0.0144: real time    0.0177
     EDDAV:  cpu time   14.7038: real time   14.7456
       DOS:  cpu time    0.0023: real time    0.0030
    --------------------------------------------
      LOOP:  cpu time   14.8380: real time   14.8950

 eigenvalue-minimisations  :  2220
 total energy-change (2. order) : 0.3915389E+04  (-0.1266084E+05)
 number of electron     350.0000000 magnetization 
 augmentation part      350.0000000 magnetization 

 Free energy of the ion-electron system (eV)
  ---------------------------------------------------
  alpha Z        PSCENC =       518.63607455
  Ewald energy   TEWEN  =     72482.48214736
  -Hartree energ DENC   =    -90912.99232327
  -exchange      EXHF   =         0.00000000
  -V(xc)+E(xc)   XCENC  =     -3060.32375737
  PAW double counting   =     19785.83060006   -15696.39549147
  entropy T*S    EENTRO =         0.00276327
  eigenvalues    EBANDS =       239.78441356
  atomic energy  EATOM  =     20558.36454164
  Solvation  Ediel_sol  =         0.00000000
  ---------------------------------------------------
  free energy    TOTEN  =      3915.38896833 eV

  energy without entropy =     3915.38620506  energy(sigma->0) =     3915.38827751


--------------------------------------------------------------------------------------------------------




----------------------------------------- Iteration    1(   2)  ---------------------------------------


     EDDAV:  cpu time   15.5029: real time   15.5081
       DOS:  cpu time    0.0012: real time    0.0012
    --------------------------------------------
      LOOP:  cpu time   15.5055: real time   15.5168

 eigenvalue-minimisations  :  2384
 total energy-change (2. order) :-0.3634738E+04  (-0.3529478E+04)
 number of electron     350.0000000 magnetization 
 augmentation part      350.0000000 magnetization 

 Free energy of the ion-electron system (eV)
  ---------------------------------------------------
  alpha Z        PSCENC =       518.63607455
  Ewald energy   TEWEN  =     72482.48214736
  -Hartree energ DENC   =    -90912.99232327
  -exchange      EXHF   =         0.00000000
  -V(xc)+E(xc)   XCENC  =     -3060.32375737
  PAW double counting   =     19785.83060006   -15696.39549147
  entropy T*S    EENTRO =         0.00444489
  eigenvalues    EBANDS =     -3394.95545229
  atomic energy  EATOM  =     20558.36454164
  Solvation  Ediel_sol  =         0.00000000
  ---------------------------------------------------
  free energy    TOTEN  =       280.65078410 eV

  energy without entropy =      280.64633921  energy(sigma->0) =      280.64967287


--------------------------------------------------------------------------------------------------------




----------------------------------------- Iteration    1(   3)  ---------------------------------------


     EDDAV:  cpu time   22.2876: real time   22.2963
       DOS:  cpu time    0.0014: real time    0.0014
    --------------------------------------------
      LOOP:  cpu time   22.2902: real time   22.3054

 eigenvalue-minimisations  :  3704
 total energy-change (2. order) :-0.7570590E+03  (-0.7344016E+03)
 number of electron     350.0000000 magnetization 
 augmentation part      350.0000000 magnetization 

 Free energy of the ion-electron system (eV)
  ---------------------------------------------------
  alpha Z        PSCENC =       518.63607455
  Ewald energy   TEWEN  =     72482.48214736
  -Hartree energ DENC   =    -90912.99232327
  -exchange      EXHF   =         0.00000000
  -V(xc)+E(xc)   XCENC  =     -3060.32375737
  PAW double counting   =     19785.83060006   -15696.39549147
  entropy T*S    EENTRO =         0.00206437
  eigenvalues    EBANDS =     -4152.01206628
  atomic energy  EATOM  =     20558.36454164
  Solvation  Ediel_sol  =         0.00000000
  ---------------------------------------------------
  free energy    TOTEN  =      -476.40821042 eV

  energy without entropy =     -476.41027479  energy(sigma->0) =     -476.40872651


--------------------------------------------------------------------------------------------------------




----------------------------------------- Iteration    1(   4)  ---------------------------------------


     EDDAV:  cpu time   21.4760: real time   21.4824
       DOS:  cpu time    0.0015: real time    0.0015
    --------------------------------------------
      LOOP:  cpu time   21.4789: real time   21.4909

 eigenvalue-minimisations  :  3544
 total energy-change (2. order) :-0.9662034E+02  (-0.9235758E+02)
 number of electron     350.0000000 magnetization 
 augmentation part      350.0000000 magnetization 

 Free energy of the ion-electron system (eV)
  ---------------------------------------------------
  alpha Z        PSCENC =       518.63607455
  Ewald energy   TEWEN  =     72482.48214736
  -Hartree energ DENC   =    -90912.99232327
  -exchange      EXHF   =         0.00000000
  -V(xc)+E(xc)   XCENC  =     -3060.32375737
  PAW double counting   =     19785.83060006   -15696.39549147
  entropy T*S    EENTRO =        -0.01204532
  eigenvalues    EBANDS =     -4248.61830020
  atomic energy  EATOM  =     20558.36454164
  Solvation  Ediel_sol  =         0.00000000
  ---------------------------------------------------
  free energy    TOTEN  =      -573.02855403 eV

  energy without entropy =     -573.01650870  energy(sigma->0) =     -573.02554270


--------------------------------------------------------------------------------------------------------




----------------------------------------- Iteration    1(   5)  ---------------------------------------


     EDDAV:  cpu time   23.2767: real time   23.2839
       DOS:  cpu time    0.0014: real time    0.0014
    CHARGE:  cpu time    0.2650: real time    0.2663
    MIXING:  cpu time    0.0075: real time    0.0084
    --------------------------------------------
      LOOP:  cpu time   23.5518: real time   23.5677

 eigenvalue-minimisations  :  3896
 total energy-change (2. order) :-0.1403032E+02  (-0.1361230E+02)
 number of electron     350.0000016 magnetization 
 augmentation part       42.6169852 magnetization 

 Broyden mixing:
  rms(total) = 0.59534E+01    rms(broyden)= 0.59534E+01
  rms(prec ) = 0.65804E+01
  weight for this iteration     100.00

 Free energy of the ion-electron system (eV)
  ---------------------------------------------------
  alpha Z        PSCENC =       518.63607455
  Ewald energy   TEWEN  =     72482.48214736
  -Hartree energ DENC   =    -90912.99232327
  -exchange      EXHF   =         0.00000000
  -V(xc)+E(xc)   XCENC  =     -3060.32375737
  PAW double counting   =     19785.83060006   -15696.39549147
  entropy T*S    EENTRO =         0.00000646
  eigenvalues    EBANDS =     -4262.66066858
  atomic energy  EATOM  =     20558.36454164
  Solvation  Ediel_sol  =         0.00000000
  ---------------------------------------------------
  free energy    TOTEN  =      -587.05887063 eV

  energy without entropy =     -587.05887708  energy(sigma->0) =     -587.05887224


--------------------------------------------------------------------------------------------------------




----------------------------------------- Iteration    1(   6)  ---------------------------------------


    POTLOK:  cpu time    0.0995: real time    0.0995
    SETDIJ:  cpu time    0.0084: real time    0.0084
    EDDIAG:  cpu time    0.9787: real time    0.9803
  RMM-DIIS:  cpu time   17.4402: real time   17.4455
    ORTHCH:  cpu time    0.2316: real time    0.2319
       DOS:  cpu time    0.0015: real time    0.0015
    CHARGE:  cpu time    0.2635: real time    0.2635
    MIXING:  cpu time    0.0057: real time    0.0093
    --------------------------------------------
      LOOP:  cpu time   19.0307: real time   19.0477

 eigenvalue-minimisations  :  3552
 total energy-change (2. order) :-0.4708121E+02  (-0.1436745E+03)
 number of electron     350.0000005 magnetization 
 augmentation part       57.2898542 magnetization 

 Broyden mixing:
  rms(total) = 0.41345E+01    rms(broyden)= 0.41345E+01
  rms(prec ) = 0.52908E+01
  weight for this iteration     100.00

 eigenvalues of (default mixing * dielectric matrix)
  average eigenvalue GAMMA=   0.7195
  0.7195

 Free energy of the ion-electron system (eV)
  ---------------------------------------------------
  alpha Z        PSCENC =       518.63607455
  Ewald energy   TEWEN  =     72482.48214736
  -Hartree energ DENC   =    -91611.96175182
  -exchange      EXHF   =         0.00000000
  -V(xc)+E(xc)   XCENC  =     -3050.05732761
  PAW double counting   =     23279.90978708   -19191.82654512
  entropy T*S    EENTRO =        -0.00581834
  eigenvalues    EBANDS =     -3619.68119321
  atomic energy  EATOM  =     20558.36454164
  Solvation  Ediel_sol  =         0.00000000
  ---------------------------------------------------
  free energy    TOTEN  =      -634.14008548 eV

  energy without entropy =     -634.13426714  energy(sigma->0) =     -634.13863089


--------------------------------------------------------------------------------------------------------




----------------------------------------- Iteration    1(   7)  ---------------------------------------


    POTLOK:  cpu time    0.0961: real time    0.0961
    SETDIJ:  cpu time    0.0084: real time    0.0084
    EDDIAG:  cpu time    0.9782: real time    0.9786
  RMM-DIIS:  cpu time   11.8710: real time   11.8746
    ORTHCH:  cpu time    0.2321: real time    0.2321
       DOS:  cpu time    0.0015: real time    0.0015
    CHARGE:  cpu time    0.2641: real time    0.2641
    MIXING:  cpu time    0.0037: real time    0.0041
    --------------------------------------------
      LOOP:  cpu time   13.4566: real time   13.4677

 eigenvalue-minimisations  :  2383
 total energy-change (2. order) : 0.1021897E+03  (-0.3294136E+02)
 number of electron     350.0000012 magnetization 
 augmentation part       49.1721196 magnetization 

 Broyden mixing:
  rms(total) = 0.27376E+01    rms(broyden)= 0.27376E+01
  rms(prec ) = 0.33148E+01
  weight for this iteration     100.00

 eigenvalues of (default mixing * dielectric matrix)
  average eigenvalue GAMMA=   0.7769
  1.1886  0.3652

 Free energy of the ion-electron system (eV)
  ---------------------------------------------------
  alpha Z        PSCENC =       518.63607455
  Ewald energy   TEWEN  =     72482.48214736
  -Hartree energ DENC   =    -91197.74639048
  -exchange      EXHF   =         0.00000000
  -V(xc)+E(xc)   XCENC  =     -3050.92374551
  PAW double counting   =     23626.15735090   -19550.45355423
  entropy T*S    EENTRO =        -0.01576291
  eigenvalues    EBANDS =     -3918.45104109
  atomic energy  EATOM  =     20558.36454164
  Solvation  Ediel_sol  =         0.00000000
  ---------------------------------------------------
  free energy    TOTEN  =      -531.95037978 eV

  energy without entropy =     -531.93461687  energy(sigma->0) =     -531.94643905


--------------------------------------------------------------------------------------------------------




----------------------------------------- Iteration    1(   8)  ---------------------------------------


    POTLOK:  cpu time    0.0955: real time    0.0957
    SETDIJ:  cpu time    0.0081: real time    0.0081
    EDDIAG:  cpu time    0.9801: real time    0.9804
  RMM-DIIS:  cpu time   15.3423: real time   15.3471
    ORTHCH:  cpu time    0.2317: real time    0.2317
       DOS:  cpu time    0.0015: real time    0.0015
    CHARGE:  cpu time    0.2620: real time    0.2620
    MIXING:  cpu time    0.0039: real time    0.0045
    --------------------------------------------
      LOOP:  cpu time   16.9266: real time   16.9377

 eigenvalue-minimisations  :  3112
 total energy-change (2. order) :-0.1684023E+01  (-0.1313219E+02)
 number of electron     350.0000010 magnetization 
 augmentation part       48.5795839 magnetization 

 Broyden mixing:
  rms(total) = 0.20491E+01    rms(broyden)= 0.20491E+01
  rms(prec ) = 0.31789E+01
  weight for this iteration     100.00

 eigenvalues of (default mixing * dielectric matrix)
  average eigenvalue GAMMA=   0.7433
  1.4643  0.3828  0.3828

 Free energy of the ion-electron system (eV)
  ---------------------------------------------------
  alpha Z        PSCENC =       518.63607455
  Ewald energy   TEWEN  =     72482.48214736
  -Hartree energ DENC   =    -91262.46501935
  -exchange      EXHF   =         0.00000000
  -V(xc)+E(xc)   XCENC  =     -3048.57082216
  PAW double counting   =     24562.29862442   -20487.18391309
  entropy T*S    EENTRO =         0.00274680
  eigenvalues    EBANDS =     -3857.19878257
  atomic energy  EATOM  =     20558.36454164
  Solvation  Ediel_sol  =         0.00000000
  ---------------------------------------------------
  free energy    TOTEN  =      -533.63440240 eV

  energy without entropy =     -533.63714920  energy(sigma->0) =     -533.63508910


--------------------------------------------------------------------------------------------------------




----------------------------------------- Iteration    1(   9)  ---------------------------------------


    POTLOK:  cpu time    0.0962: real time    0.0962
    SETDIJ:  cpu time    0.0082: real time    0.0082
    EDDIAG:  cpu time    0.9909: real time    0.9912
  RMM-DIIS:  cpu time   17.8792: real time   17.8847
    ORTHCH:  cpu time    0.2308: real time    0.2312
       DOS:  cpu time    0.0014: real time    0.0014
    CHARGE:  cpu time    0.2628: real time    0.2628
    MIXING:  cpu time    0.0039: real time    0.0039
    --------------------------------------------
      LOOP:  cpu time   19.4750: real time   19.4886

 eigenvalue-minimisations  :  3643
 total energy-change (2. order) : 0.3231992E+00  (-0.6467678E+01)
 number of electron     350.0000008 magnetization 
 augmentation part       49.6161648 magnetization 

 Broyden mixing:
  rms(total) = 0.19960E+01    rms(broyden)= 0.19960E+01
  rms(prec ) = 0.36664E+01
  weight for this iteration     100.00

 eigenvalues of (default mixing * dielectric matrix)
  average eigenvalue GAMMA=   0.6476
  1.5797  0.4181  0.4181  0.1746

 Free energy of the ion-electron system (eV)
  ---------------------------------------------------
  alpha Z        PSCENC =       518.63607455
  Ewald energy   TEWEN  =     72482.48214736
  -Hartree energ DENC   =    -91317.08875040
  -exchange      EXHF   =         0.00000000
  -V(xc)+E(xc)   XCENC  =     -3045.94163108
  PAW double counting   =     25083.89393544   -21005.75438093
  entropy T*S    EENTRO =         0.00998454
  eigenvalues    EBANDS =     -3807.91312432
  atomic energy  EATOM  =     20558.36454164
  Solvation  Ediel_sol  =         0.00000000
  ---------------------------------------------------
  free energy    TOTEN  =      -533.31120320 eV

  energy without entropy =     -533.32118774  energy(sigma->0) =     -533.31369933


--------------------------------------------------------------------------------------------------------




----------------------------------------- Iteration    1(  10)  ---------------------------------------


    POTLOK:  cpu time    0.0964: real time    0.0964
    SETDIJ:  cpu time    0.0081: real time    0.0081
    EDDIAG:  cpu time    0.9910: real time    0.9913
  RMM-DIIS:  cpu time   16.8104: real time   16.8156
    ORTHCH:  cpu time    0.2311: real time    0.2311
       DOS:  cpu time    0.0015: real time    0.0015
    CHARGE:  cpu time    0.2643: real time    0.2643
    MIXING:  cpu time    0.0042: real time    0.0042
    --------------------------------------------
      LOOP:  cpu time   18.4086: real time   18.4191

 eigenvalue-minimisations  :  3416
 total energy-change (2. order) : 0.1643295E+02  (-0.2340051E+01)
 number of electron     350.0000011 magnetization 
 augmentation part       49.2744167 magnetization 

 Broyden mixing:
  rms(total) = 0.10412E+01    rms(broyden)= 0.10412E+01
  rms(prec ) = 0.13928E+01
  weight for this iteration     100.00

 eigenvalues of (default mixing * dielectric matrix)
  average eigenvalue GAMMA=   0.6118
  1.5837  0.5119  0.5119  0.3154  0.1358

 Free energy of the ion-electron system (eV)
  ---------------------------------------------------
  alpha Z        PSCENC =       518.63607455
  Ewald energy   TEWEN  =     72482.48214736
  -Hartree energ DENC   =    -91362.66251336
  -exchange      EXHF   =         0.00000000
  -V(xc)+E(xc)   XCENC  =     -3043.87512875
  PAW double counting   =     25496.56409324   -21415.71848210
  entropy T*S    EENTRO =         0.00148070
  eigenvalues    EBANDS =     -3750.67046242
  atomic energy  EATOM  =     20558.36454164
  Solvation  Ediel_sol  =         0.00000000
  ---------------------------------------------------
  free energy    TOTEN  =      -516.87824914 eV

  energy without entropy =     -516.87972984  energy(sigma->0) =     -516.87861932


--------------------------------------------------------------------------------------------------------




----------------------------------------- Iteration    1(  11)  ---------------------------------------


    POTLOK:  cpu time    0.0966: real time    0.0966
    SETDIJ:  cpu time    0.0082: real time    0.0083
    EDDIAG:  cpu time    0.9847: real time    0.9850
  RMM-DIIS:  cpu time   17.0518: real time   17.0571
    ORTHCH:  cpu time    0.2310: real time    0.2313
       DOS:  cpu time    0.0016: real time    0.0016
    CHARGE:  cpu time    0.2663: real time    0.2663
    MIXING:  cpu time    0.0043: real time    0.0043
    --------------------------------------------
      LOOP:  cpu time   18.6461: real time   18.6586

 eigenvalue-minimisations  :  3460
 total energy-change (2. order) : 0.9908081E+00  (-0.1431362E+01)
 number of electron     350.0000011 magnetization 
 augmentation part       49.7861746 magnetization 

 Broyden mixing:
  rms(total) = 0.76124E+00    rms(broyden)= 0.76124E+00
  rms(prec ) = 0.93059E+00
  weight for this iteration     100.00

 eigenvalues of (default mixing * dielectric matrix)
  average eigenvalue GAMMA=   0.6258
  1.5536  0.7462  0.7462  0.3215  0.2535  0.1335

 Free energy of the ion-electron system (eV)
  ---------------------------------------------------
  alpha Z        PSCENC =       518.63607455
  Ewald energy   TEWEN  =     72482.48214736
  -Hartree energ DENC   =    -91371.89952930
  -exchange      EXHF   =         0.00000000
  -V(xc)+E(xc)   XCENC  =     -3042.82896909
  PAW double counting   =     25662.99272712   -21579.32340807
  entropy T*S    EENTRO =         0.00115357
  eigenvalues    EBANDS =     -3744.31217877
  atomic energy  EATOM  =     20558.36454164
  Solvation  Ediel_sol  =         0.00000000
  ---------------------------------------------------
  free energy    TOTEN  =      -515.88744100 eV

  energy without entropy =     -515.88859456  energy(sigma->0) =     -515.88772939


--------------------------------------------------------------------------------------------------------




----------------------------------------- Iteration    1(  12)  ---------------------------------------


    POTLOK:  cpu time    0.0967: real time    0.0967
    SETDIJ:  cpu time    0.0083: real time    0.0083
    EDDIAG:  cpu time    0.9849: real time    0.9852
  RMM-DIIS:  cpu time   17.2595: real time   17.2646
    ORTHCH:  cpu time    0.2318: real time    0.2321
       DOS:  cpu time    0.0016: real time    0.0016
    CHARGE:  cpu time    0.2626: real time    0.2626
    MIXING:  cpu time    0.0045: real time    0.0045
    --------------------------------------------
      LOOP:  cpu time   18.8514: real time   18.8631

 eigenvalue-minimisations  :  3501
 total energy-change (2. order) : 0.5464754E+00  (-0.6444371E+00)
 number of electron     350.0000010 magnetization 
 augmentation part       50.2440457 magnetization 

 Broyden mixing:
  rms(total) = 0.51777E+00    rms(broyden)= 0.51777E+00
  rms(prec ) = 0.64297E+00
  weight for this iteration     100.00

 eigenvalues of (default mixing * dielectric matrix)
  average eigenvalue GAMMA=   0.6414
  1.5154  1.2280  0.6448  0.3642  0.3642  0.2387  0.1347

 Free energy of the ion-electron system (eV)
  ---------------------------------------------------
  alpha Z        PSCENC =       518.63607455
  Ewald energy   TEWEN  =     72482.48214736
  -Hartree energ DENC   =    -91375.62277960
  -exchange      EXHF   =         0.00000000
  -V(xc)+E(xc)   XCENC  =     -3041.70409996
  PAW double counting   =     25871.36093385   -21783.48450947
  entropy T*S    EENTRO =        -0.00412435
  eigenvalues    EBANDS =     -3745.36914958
  atomic energy  EATOM  =     20558.36454164
  Solvation  Ediel_sol  =         0.00000000
  ---------------------------------------------------
  free energy    TOTEN  =      -515.34096556 eV

  energy without entropy =     -515.33684121  energy(sigma->0) =     -515.33993447


--------------------------------------------------------------------------------------------------------




----------------------------------------- Iteration    1(  13)  ---------------------------------------


    POTLOK:  cpu time    0.0971: real time    0.0971
    SETDIJ:  cpu time    0.0083: real time    0.0083
    EDDIAG:  cpu time    0.9877: real time    0.9881
  RMM-DIIS:  cpu time   16.4749: real time   16.4800
    ORTHCH:  cpu time    0.2309: real time    0.2312
       DOS:  cpu time    0.0015: real time    0.0015
    CHARGE:  cpu time    0.2809: real time    0.2809
    MIXING:  cpu time    0.0047: real time    0.0047
    --------------------------------------------
      LOOP:  cpu time   18.0876: real time   18.0998

 eigenvalue-minimisations  :  3362
 total energy-change (2. order) : 0.5603689E-01  (-0.5242222E+00)
 number of electron     350.0000010 magnetization 
 augmentation part       50.6555877 magnetization 

 Broyden mixing:
  rms(total) = 0.43384E+00    rms(broyden)= 0.43384E+00
  rms(prec ) = 0.57879E+00
  weight for this iteration     100.00

 eigenvalues of (default mixing * dielectric matrix)
  average eigenvalue GAMMA=   0.6717
  1.5928  1.5928  0.6035  0.6035  0.3639  0.2761  0.1347  0.2059

 Free energy of the ion-electron system (eV)
  ---------------------------------------------------
  alpha Z        PSCENC =       518.63607455
  Ewald energy   TEWEN  =     72482.48214736
  -Hartree energ DENC   =    -91376.48036161
  -exchange      EXHF   =         0.00000000
[...]
 -0.026   0.016   1.206   0.010  -0.002  -0.071  -0.001  -0.000
  0.159  -0.099   0.010   0.994   0.017  -0.001  -0.054  -0.001
 -0.016   0.008  -0.002   0.017   1.217  -0.000  -0.001  -0.070
  0.004  -0.001  -0.071  -0.001  -0.000   0.004   0.000   0.000
 -0.024   0.009  -0.001  -0.054  -0.001   0.000   0.003   0.000
  0.003  -0.001  -0.000  -0.001  -0.070   0.000   0.000   0.004


------------------------ aborting loop because EDIFF is reached ----------------------------------------


    CHARGE:  cpu time    0.2628: real time    0.2631
    FORLOC:  cpu time    0.0406: real time    0.0406
    FORNL :  cpu time   16.3801: real time   16.3842
    STRESS:  cpu time   14.2276: real time   14.2318
    FORCOR:  cpu time    0.1421: real time    0.1423
    FORHAR:  cpu time    0.0626: real time    0.0626
    MIXING:  cpu time    0.0040: real time    0.0040
    OFIELD:  cpu time    0.0000: real time    0.0000

  FORCE on cell =-STRESS in cart. coord.  units (eV):
  Direction    XX          YY          ZZ          XY          YZ          ZX
  --------------------------------------------------------------------------------------
  Alpha Z   518.63607   518.63607   518.63607
  Ewald   78647.42970 83784.45660-89949.47253  -816.99716    74.12609   527.15239
  Hartree 83102.57664 87994.69135-79650.04307  -642.47334    47.17661   500.40082
  E(xc)   -1470.31554 -1473.15494 -1461.08468    -0.21106    -1.15634    -0.11294
  Local  ************************165960.61523  1456.22480  -119.44716 -1027.48353
  n-local   -45.35077   -47.37572   -79.17048     8.37518     0.36081     1.10661
  augment   443.27244   443.60346   439.42373    -0.86435     0.01063     0.03214
  Kinetic  4197.56538  4186.26459  4205.08813    -6.11753     4.97672    -2.40356
  Fock        0.00000     0.00000     0.00000     0.00000     0.00000     0.00000
  -------------------------------------------------------------------------------------
  Total     -37.99814   -32.31522   -16.00758    -2.06345     6.04736    -1.30807
  in kB     -16.70869   -14.20977    -7.03892    -0.90735     2.65917    -0.57519
  external pressure =      -12.65 kB  Pullay stress =        0.00 kB


 VOLUME and BASIS-vectors are now :
 -----------------------------------------------------------------------------
  energy-cutoff  :      600.00
  volume of cell :     3643.60
      direct lattice vectors                 reciprocal lattice vectors
    13.771350861  0.000000000  0.000000000     0.072614518  0.000000000  0.000000000
     0.000000000  9.564481735  0.000000000     0.000000000  0.104553496  0.000000000
     0.000000000  0.000000000 27.662570434     0.000000000  0.000000000  0.036149931

  length of vectors
    13.771350861  9.564481735 27.662570434     0.072614518  0.104553496  0.036149931


 FORCES acting on ions
    electron-ion (+dipol)            ewald-force                    non-local-force                 convergence-correction
 -----------------------------------------------------------------------------------------------
   -.478E+02 -.340E+02 0.375E+03   0.476E+02 0.338E+02 -.374E+03   0.106E+00 0.102E+00 -.817E+00   0.533E-02 0.127E-02 -.137E-01
   -.190E+02 -.353E+02 -.144E+03   0.189E+02 0.352E+02 0.144E+03   0.133E+00 0.981E-01 0.159E+00   0.368E-02 -.147E-02 -.530E-02
   0.324E+02 0.200E+02 -.380E+03   -.321E+02 -.196E+02 0.378E+03   -.284E+00 -.405E+00 0.115E+01   0.482E-02 -.550E-02 0.480E-02
   -.281E+00 0.586E+01 0.188E+03   0.202E+00 -.569E+01 -.187E+03   0.878E-01 -.300E+00 -.795E+00   0.569E-02 0.266E-02 -.191E-01
   -.520E+02 0.829E+01 -.126E+03   0.517E+02 -.784E+01 0.128E+03   0.365E+00 -.458E+00 -.113E+01   0.360E-02 0.283E-03 -.166E-02
   -.454E+02 0.450E+01 0.318E+03   0.448E+02 -.394E+01 -.315E+03   0.669E+00 -.984E+00 -.226E+01   -.309E-02 -.710E-03 -.995E-02
   -.382E+03 -.713E+01 0.414E+03   0.381E+03 0.791E+01 -.415E+03   0.151E+00 -.370E+00 0.994E+00   0.121E-01 -.738E-02 -.755E-01
   -.281E+03 0.351E+02 -.169E+04   0.280E+03 -.340E+02 0.168E+04   0.131E+01 -.105E+01 0.428E+01   0.450E-01 0.716E-02 0.185E-01
   0.959E+02 -.855E+01 0.161E+04   -.955E+02 0.749E+01 -.161E+04   -.571E+00 0.604E+00 -.430E+01   0.738E-02 -.109E-01 -.524E-01
   0.199E+03 0.185E+01 -.451E+03   -.199E+03 -.198E+01 0.452E+03   0.154E+00 0.103E+00 -.124E+01   0.169E-01 0.201E-01 -.471E-01
   -.575E+02 0.138E+03 0.168E+04   0.582E+02 -.137E+03 -.168E+04   -.517E+00 -.413E+00 -.278E+01   0.130E-01 -.710E-02 -.520E-01
   0.907E+02 0.126E+03 -.454E+03   -.903E+02 -.126E+03 0.454E+03   -.432E+00 0.112E+00 -.280E+00   0.283E-01 0.601E-02 -.430E-01
   -.417E+03 -.177E+00 0.678E+03   0.418E+03 -.993E+00 -.676E+03   -.743E+00 0.144E+01 -.154E+01   0.242E-01 0.891E-02 -.861E-01
   -.160E+03 -.366E+02 -.153E+04   0.162E+03 0.361E+02 0.153E+04   -.155E+01 0.504E+00 0.307E+01   0.199E-01 -.136E-02 0.134E-01
   0.293E+03 -.118E+03 0.152E+04   -.293E+03 0.118E+03 -.152E+04   0.227E+00 -.375E+00 -.418E+01   -.607E-03 -.622E-02 -.592E-01
   0.343E+03 -.821E+02 -.483E+03   -.343E+03 0.820E+02 0.484E+03   0.162E+00 0.139E+00 -.690E+00   -.782E-02 0.110E-01 -.236E-01
   -.168E+02 0.201E+01 0.165E+03   0.164E+02 -.194E+01 -.165E+03   0.560E+00 -.218E+00 0.974E-01   0.470E-02 -.485E-02 -.320E-01
   0.859E+01 -.373E+02 -.670E+03   -.902E+01 0.371E+02 0.668E+03   0.421E+00 0.278E+00 0.238E+01   0.152E-01 0.962E-02 0.466E-02
   0.170E+03 -.129E+02 0.167E+03   -.169E+03 0.127E+02 -.168E+03   -.126E+01 0.579E+00 0.625E+00   -.961E-02 -.311E-02 -.236E-01
   0.132E+03 0.792E+01 -.616E+03   -.131E+03 -.766E+01 0.613E+03   -.933E+00 -.254E+00 0.307E+01   -.134E-01 0.486E-02 0.621E-02
   0.117E+03 -.804E+01 -.807E+02   -.117E+03 0.688E+01 0.797E+02   -.372E+00 0.116E+01 0.986E+00   -.861E-02 0.271E-02 -.545E-02
   0.117E+03 -.559E+02 0.465E+03   -.115E+03 0.560E+02 -.462E+03   -.828E+00 -.213E+00 -.266E+01   -.193E-02 0.162E-02 -.140E-01
   -.104E+03 0.645E+02 -.161E+03   0.104E+03 -.641E+02 0.161E+03   0.193E+00 -.413E+00 0.576E+00   0.680E-02 -.332E-02 -.735E-02
   -.101E+03 0.598E+02 0.516E+03   0.999E+02 -.593E+02 -.513E+03   0.449E+00 -.521E+00 -.276E+01   0.238E-02 0.409E-03 -.128E-01
   0.752E+02 -.140E+02 0.152E+03   -.761E+02 0.136E+02 -.152E+03   0.878E+00 0.749E+00 -.433E+00   0.141E-02 -.113E-02 -.239E-01
   0.271E+02 -.374E+02 -.546E+03   -.280E+02 0.372E+02 0.544E+03   0.925E+00 0.196E+00 0.246E+01   0.230E-02 0.520E-02 0.510E-02
   -.122E+03 -.329E+01 -.451E+03   0.122E+03 0.339E+01 0.449E+03   0.420E+00 -.982E-01 0.218E+01   0.824E-02 -.110E-02 0.577E-02
   -.164E+03 0.682E+01 0.177E+03   0.163E+03 -.664E+01 -.178E+03   0.404E+00 -.384E+00 0.311E+00   0.111E-02 -.290E-03 -.229E-01
   -.150E+03 -.544E+01 0.472E+03   0.149E+03 0.542E+01 -.469E+03   0.661E+00 -.803E-01 -.257E+01   -.648E-03 -.244E-04 -.152E-01
   -.194E+03 -.174E+01 -.175E+03   0.193E+03 0.195E+01 0.175E+03   0.745E+00 -.207E+00 0.210E+00   0.914E-02 0.195E-02 -.360E-02
   0.789E+02 0.127E+01 0.162E+03   -.791E+02 -.853E+00 -.162E+03   0.323E-02 -.700E-01 -.378E-01   0.400E-02 0.921E-03 -.235E-01
   0.115E+03 0.347E+02 -.545E+03   -.114E+03 -.342E+02 0.543E+03   -.839E+00 -.507E+00 0.229E+01   0.131E-02 -.392E-02 0.580E-02
   0.520E+02 0.163E+01 -.177E+03   -.524E+02 -.139E+01 0.176E+03   0.440E+00 -.244E+00 0.715E+00   -.124E-02 -.564E-02 -.974E-02
   0.346E+02 -.112E+01 0.497E+03   -.352E+02 0.105E+01 -.494E+03   0.631E+00 0.275E-03 -.253E+01   0.495E-02 0.310E-02 -.158E-01
   0.124E+03 0.104E+02 0.155E+03   -.124E+03 -.107E+02 -.155E+03   -.685E+00 0.726E+00 -.485E+00   -.162E-02 -.176E-02 -.236E-01
   0.107E+03 0.302E+02 -.520E+03   -.106E+03 -.296E+02 0.518E+03   -.778E+00 -.540E+00 0.213E+01   -.123E-01 0.385E-02 0.525E-02
   0.128E+03 0.150E+02 0.173E+03   -.128E+03 -.144E+02 -.172E+03   0.756E-02 -.597E+00 -.658E+00   -.530E-02 0.211E-02 -.200E-01
   0.612E+02 -.521E+02 -.490E+03   -.620E+02 0.526E+02 0.488E+03   0.803E+00 -.527E+00 0.204E+01   -.156E-01 -.244E-02 0.432E-02
   0.126E+03 0.398E+02 0.424E+03   -.126E+03 -.396E+02 -.421E+03   0.201E+00 -.490E+00 -.281E+01   -.392E-02 -.157E-02 -.155E-01
   0.123E+03 0.255E+02 -.168E+03   -.123E+03 -.250E+02 0.168E+03   -.272E+00 -.467E+00 -.690E+00   -.123E-01 -.362E-02 -.160E-02
   -.982E+02 -.122E+01 0.481E+03   0.985E+02 0.122E+01 -.477E+03   -.505E+00 0.247E-01 -.306E+01   0.609E-03 -.109E-02 -.130E-01
   -.151E+03 -.544E-02 -.142E+03   0.151E+03 -.393E-01 0.143E+03   0.677E+00 0.463E-01 -.525E+00   0.503E-02 -.170E-02 -.513E-02
   0.129E+03 0.293E+02 0.449E+03   -.129E+03 -.295E+02 -.447E+03   -.217E+00 0.349E+00 -.249E+01   0.107E-02 0.177E-02 -.171E-01
   0.101E+03 -.516E+01 -.166E+03   -.101E+03 0.573E+01 0.166E+03   -.874E+00 -.571E+00 0.395E+00   -.142E-01 -.256E-02 -.686E-02
   0.206E+02 -.365E+01 -.517E+03   -.210E+02 0.270E+01 0.513E+03   0.399E+00 0.947E+00 0.323E+01   -.110E-01 -.258E-02 0.564E-02
   0.127E+03 -.569E+01 0.189E+03   -.128E+03 0.541E+01 -.189E+03   0.225E+00 0.199E+00 0.748E-01   -.140E-02 0.155E-02 -.218E-01
   0.439E+02 0.529E+01 0.136E+03   -.436E+02 -.526E+01 -.137E+03   -.386E+00 -.193E+00 0.742E-01   -.534E-02 0.153E-02 -.177E-01
   0.928E+01 0.693E+01 -.444E+03   -.949E+01 -.706E+01 0.441E+03   0.215E+00 0.133E+00 0.322E+01   -.315E-02 -.441E-02 0.337E-02
   -.398E+02 0.162E-01 0.435E+03   0.400E+02 0.308E+00 -.432E+03   -.397E-01 -.258E+00 -.271E+01   -.256E-02 0.146E-02 -.124E-01
   -.659E+02 -.802E+01 -.146E+03   0.658E+02 0.760E+01 0.146E+03   0.345E-01 0.420E+00 -.967E-01   0.216E-02 -.520E-03 -.255E-02
   0.527E+02 -.383E+01 0.415E+03   -.526E+02 0.319E+01 -.412E+03   -.360E-01 0.174E+00 -.315E+01   -.595E-02 -.306E-02 -.131E-01
   0.560E+02 0.108E+02 -.157E+03   -.554E+02 -.110E+02 0.157E+03   -.533E+00 0.152E+00 -.507E+00   -.555E-02 0.100E-02 -.160E-02
   -.684E+02 -.147E+01 0.163E+03   0.685E+02 0.169E+01 -.163E+03   0.629E-01 0.159E+00 0.123E+00   -.179E-02 0.967E-03 -.191E-01
   -.455E+02 -.502E+01 -.427E+03   0.458E+02 0.524E+01 0.424E+03   -.378E+00 -.221E+00 0.284E+01   0.651E-02 0.968E-03 0.358E-02
   0.411E+02 0.176E+01 0.431E+03   -.405E+02 -.162E+01 -.427E+03   -.809E+00 -.297E+00 -.318E+01   -.375E-02 0.291E-02 -.136E-01
   0.760E+02 -.291E+02 -.106E+03   -.759E+02 0.294E+02 0.106E+03   -.984E-01 -.337E+00 0.899E-01   -.427E-02 0.465E-03 0.123E-03
   -.916E+02 -.863E+00 0.134E+03   0.913E+02 0.743E+00 -.135E+03   0.318E+00 0.142E+00 0.104E+00   0.123E-03 -.859E-03 -.193E-01
   -.956E+02 -.300E+01 -.468E+03   0.948E+02 0.226E+01 0.465E+03   0.844E+00 0.743E+00 0.361E+01   0.311E-02 -.242E-03 0.277E-02
   0.710E+02 0.233E+02 -.452E+03   -.702E+02 -.232E+02 0.449E+03   -.718E+00 -.975E-01 0.255E+01   -.445E-02 0.451E-02 0.326E-02
   0.521E+02 -.848E+01 0.168E+03   -.516E+02 0.823E+01 -.169E+03   -.543E+00 0.583E+00 0.131E+00   -.637E-02 -.136E-02 -.175E-01
   -.141E+03 -.429E+02 0.512E+03   0.141E+03 0.423E+02 -.508E+03   0.812E+00 0.413E-01 -.331E+01   0.446E-02 -.129E-03 -.143E-01
   -.145E+03 -.419E+02 -.140E+03   0.144E+03 0.414E+02 0.141E+03   0.233E+00 0.504E+00 -.812E+00   0.711E-02 0.311E-02 -.966E-02
   -.156E+03 0.474E+01 0.161E+03   0.155E+03 -.479E+01 -.162E+03   0.789E+00 0.448E+00 0.420E+00   0.486E-02 0.166E-03 -.232E-01
   -.128E+03 0.769E+01 -.466E+03   0.128E+03 -.695E+01 0.463E+03   0.307E+00 -.741E+00 0.320E+01   0.714E-02 0.675E-03 0.344E-02
   0.107E+03 -.170E+02 -.483E+03   -.106E+03 0.166E+02 0.483E+03   -.692E+00 0.394E+00 -.243E+00   -.207E-01 0.852E-02 0.128E-01
 -----------------------------------------------------------------------------------------------
   -.219E+00 0.599E+00 0.684E+01   -.142E-13 0.306E-12 0.114E-12   0.121E+00 -.661E+00 -.596E+01   0.105E+00 0.314E-01 -.878E+00
 
 
 POSITION                                       TOTAL-FORCE (eV/Angst)
 -----------------------------------------------------------------------------------
      8.57631      8.29685     10.39845        -0.096427     -0.163801      0.003019
      8.55341      3.75719     15.12486        -0.006201     -0.000800     -0.002806
      8.50325      6.07142     17.29176        -0.001766      0.006120      0.005230
      8.51616      0.79995     12.43874         0.013923     -0.125954     -0.247395
     13.50452      6.11730     15.33110        -0.003156     -0.003018      0.000812
     13.49094      1.15316     10.44749        -0.013550     -0.428617     -0.042521
     10.03344      3.28428     12.67411        -0.027850      0.404575     -0.509277
      9.92760      8.58015     17.17777         0.001547     -0.004760      0.002150
      7.12524      5.81577     10.15765        -0.177734     -0.469705      0.871815
      7.07119      1.27614     14.92009        -0.000555     -0.004121     -0.001790
      8.51222      3.28036     10.20450         0.260808      0.087094      0.728451
      8.51332      8.35717     14.88678        -0.000578      0.001069     -0.003024
     10.22263      8.06723     12.77991         0.329309      0.275146     -0.486764
     10.20911      3.73759     17.37005         0.000680      0.000423     -0.001041
      5.42664      8.10481     10.20639         0.293900      0.048439      0.952596
      5.39328      3.55001     14.99990        -0.002201     -0.000769      0.000770
      8.52843      5.75423     12.65640         0.119708     -0.155970     -0.028123
      8.52368      1.41105     17.22692         0.001860      0.002388      0.000234
      3.84829      7.97317     12.47259        -0.416751      0.374371     -0.403793
      3.92621      3.61946     17.20895        -0.003197      0.005481      0.000245
      3.83136      5.69259     14.80900        -0.002648      0.002462      0.000018
      3.90063      0.73891     10.00000         0.497530     -0.152656      0.377271
     10.14566      6.06298     14.93867         0.001798      0.003017      0.001295
     10.19112      1.10470     10.13736        -0.221791      0.016717      0.370594
      6.82945      7.99424     12.66670        -0.029419      0.288360     -0.375109
      6.83854      3.61690     17.33763         0.001653      0.000770      0.001435
     11.53628      6.20098     17.25185        -0.000106      0.002926     -0.002790
     11.66772      1.05372     12.57547        -0.047608     -0.206685     -0.672931
     11.73919      3.33868     10.41199        -0.291282     -0.098572      0.585351
     11.75133      8.30231     15.28539         0.003741      0.003305      0.002557
      7.18522      3.24644     12.75390        -0.187650      0.351070     -0.501062
      7.12866      8.55633     17.22062         0.001977      0.002626      0.002584
      6.87309      5.99001     14.92726         0.001299     -0.004090     -0.003383
      6.87795      0.97560     10.08695        -0.045935     -0.062291      0.140120
      5.51084      5.55012     12.48419         0.003178      0.374013     -0.361723
      5.46024      1.27142     17.17434         0.002305      0.006954      0.004257
      3.51249      3.50019     12.83519        -0.075374     -0.009421     -0.542387
      3.25158      8.82400     17.42248        -0.000125     -0.000484     -0.002838
      3.46798      5.87237     10.40868         0.094549     -0.225039     -0.112289
      3.34055      1.29505     15.24432        -0.001119      0.004889     -0.004908
     11.91771      8.21633     10.24534        -0.215907      0.029886      0.703376
     11.91268      3.63775     15.09970         0.002599      0.000357     -0.007297
      5.24135      3.36543     10.32679         0.206095      0.093154      0.142989
      5.16847      8.38136     15.15223        -0.005108     -0.001037     -0.002876
      5.27197      6.15011     17.35204        -0.005563      0.001713     -0.004637
      5.28930      0.99064     12.60849         0.095477     -0.081397     -0.295055
      1.60538      5.84491     12.85122        -0.089608     -0.157353     -0.586886
      1.44444      1.88256     17.59837        -0.000456     -0.000843     -0.002142
     13.72038      5.67134     10.18293         0.210125      0.068426      0.711477
     13.69613      1.07278     15.10972        -0.002425      0.003482     -0.004141
      1.63456      8.33987     10.36453        -0.033651     -0.464924      0.142601
      1.62430      3.78129     15.21248         0.004024      0.003792      0.000697
     13.76831      3.16119     12.53308         0.129057      0.379258     -0.354324
      0.06595      8.42159     17.31019        -0.005622     -0.000657     -0.000877
      1.99440      3.17314     10.17666        -0.142383     -0.159545      0.687269
      1.93374      8.06363     14.99165         0.003711     -0.001154      0.005922
     13.48051      8.37930     12.86886        -0.059277      0.021003     -0.379823
     13.15970      4.09788     17.82315        -0.000029      0.000557     -0.000437
      2.02521      5.95657     17.30359        -0.001649      0.003027     -0.002714
      2.02729      0.87737     12.46815        -0.006660      0.334614     -0.269710
     10.07171      5.79402     10.14663         0.122028     -0.618362      0.132710
     10.12817      1.23371     14.91100         0.000047     -0.000705     -0.003347
     11.97051      5.66181     12.67660        -0.176945      0.395609     -0.361116
     11.81884      1.33125     17.50384        -0.001228      0.001992      0.002348
      3.58708      7.16924     16.26490        -0.003390      0.003649      0.001139
 -----------------------------------------------------------------------------------
    total drift:                                0.006665     -0.031015      0.000828


--------------------------------------------------------------------------------------------------------



  FREE ENERGIE OF THE ION-ELECTRON SYSTEM (eV)
  ---------------------------------------------------
  free  energy   TOTEN  =      -514.94362534 eV

  energy  without entropy=     -514.94404799  energy(sigma->0) =     -514.94373100
 
 d Force = 0.1216889E-04[ 0.885E-05, 0.155E-04]  d Energy = 0.1695377E-03-0.157E-03
 d Force = 0.5875734E-04[ 0.543E-04, 0.632E-04]  d Ewald  = 0.5875762E-04-0.291E-09


--------------------------------------------------------------------------------------------------------


    POTLOK:  cpu time    0.1112: real time    0.1112


--------------------------------------------------------------------------------------------------------


 Steepest descent step on ions:
 trial-energy change:   -0.000170  1 .order   -0.000012   -0.000015   -0.000009
  (g-gl).g = 0.155E-04      g.g   = 0.155E-04  gl.gl    = 0.000E+00
 g(Force)  = 0.155E-04   g(Stress)= 0.000E+00 ortho     = 0.000E+00
 gamma     =   0.00000
 trial     =   1.00000
 opt step  =   2.33332  (harmonic =   2.33332) maximal distance =0.00021611
 next E    =  -514.943474   (d E  =  -0.00002)


--------------------------------------------------------------------------------------------------------


  
 reached required accuracy - stopping structural energy minimisation
     LOOP+:  cpu time   51.8988: real time   51.9391
    4ORBIT:  cpu time    0.0000: real time    0.0000

 total amount of memory used by VASP on root node   122660. kBytes
========================================================================

   base      :      30000. kBytes
   nonl-proj :      27196. kBytes
   fftplans  :       6516. kBytes
   grid      :      15878. kBytes
   one-center:         46. kBytes
   wavefun   :      43024. kBytes
 
  
  
 General timing and accounting informations for this job:
 ========================================================
  
                  Total CPU time used (sec):      655.323
                            User time (sec):      654.377
                          System time (sec):        0.946
                         Elapsed time (sec):      655.933
  
                   Maximum memory used (kb):      159740.
                   Average memory used (kb):           0.
  
                          Minor page faults:        48239
                          Major page faults:            0
                 Voluntary context switches:         2648
