 vasp.5.4.4.18Apr17-6-g9f103f2a35 (build Jan 21 2021 13:12:21) complex          
  
 executed on             LinuxIFC date 2021.10.31  14:09:06
 running on   30 total cores
 distrk:  each k-point on   30 cores,    1 groups
 distr:  one band on NCORES_PER_BAND=   1 cores,   30 groups


--------------------------------------------------------------------------------------------------------


 INCAR:
 POTCAR:    PAW_PBE Al 04Jan2001                  
 POTCAR:    PAW_PBE Nb_sv 25May2007               
 POTCAR:    PAW_PBE Ta 17Jan2003                  
 POTCAR:    PAW_PBE Ti 08Apr2002                  
 POTCAR:   PAW_PBE Zr 08Apr2002                   
 POTCAR:    PAW_PBE O 08Apr2002                   

 ----------------------------------------------------------------------------- 
|                                                                             |
|           W    W    AA    RRRRR   N    N  II  N    N   GGGG   !!!           |
|           W    W   A  A   R    R  NN   N  II  NN   N  G    G  !!!           |
|           W    W  A    A  R    R  N N  N  II  N N  N  G       !!!           |
|           W WW W  AAAAAA  RRRRR   N  N N  II  N  N N  G  GGG   !            |
|           WW  WW  A    A  R   R   N   NN  II  N   NN  G    G                |
|           W    W  A    A  R    R  N    N  II  N    N   GGGG   !!!           |
|                                                                             |
|      For optimal performance we recommend to set                            |
|        NCORE= 4 - approx SQRT( number of cores)                             |
|      NCORE specifies how many cores store one orbital (NPAR=cpu/NCORE).     |
|      This setting can  greatly improve the performance of VASP for DFT.     |
|      The default,   NCORE=1            might be grossly inefficient         |
|      on modern multi-core architectures or massively parallel machines.     |
|      Do your own testing !!!!                                               |
|      Unfortunately you need to use the default for GW and RPA calculations. |
|      (for HF NCORE is supported but not extensively tested yet)             |
|                                                                             |
 ----------------------------------------------------------------------------- 

 POTCAR:    PAW_PBE Al 04Jan2001                  
   VRHFIN =Al: s2p1                                                             
   LEXCH  = PE                                                                  
   EATOM  =    53.5387 eV,    3.9350 Ry                                         
                                                                                
   TITEL  = PAW_PBE Al 04Jan2001                                                
   LULTRA =        F    use ultrasoft PP ?                                      
   IUNSCR =        1    unscreen: 0-lin 1-nonlin 2-no                           
   RPACOR =    1.500    partial core radius                                     
   POMASS =   26.981; ZVAL   =    3.000    mass and valenz                      
   RCORE  =    1.900    outmost cutoff radius                                   
   RWIGS  =    2.650; RWIGS  =    1.402    wigner-seitz radius (au A)           
   ENMAX  =  240.300; ENMIN  =  180.225 eV                                      
   ICORE  =        2    local potential                                         
   LCOR   =        T    correct aug charges                                     
   LPAW   =        T    paw PP                                                  
   EAUG   =  291.052                                                            
   DEXC   =    0.000                                                            
   RMAX   =    1.939    core radius for proj-oper                               
   RAUG   =    1.300    factor for augmentation sphere                          
   RDEP   =    1.966    radius for radial grids                                 
   RDEPT  =    1.856    core radius for aug-charge                              
                                                                                
   Atomic configuration                                                         
    6 entries                                                                   
     n  l   j            E        occ.                                          
     1  0  0.50     -1511.1048   2.0000                                         
     2  0  0.50      -108.1629   2.0000                                         
     2  1  1.50       -69.6402   6.0000                                         
     3  0  0.50        -7.7528   2.0000                                         
     3  1  1.50        -2.7121   1.0000                                         
     3  2  2.50        -2.7212   0.0000                                         
   Description                                                                  
     l       E           TYP  RCUT    TYP  RCUT                                 
     0     -7.7528455     23  1.900                                             
     0     -3.3096929     23  1.900                                             
     1     -2.7120682     23  1.900                                             
     1     13.6058260     23  1.900                                             
     2     -2.7211652      7  1.900                                             
  local pseudopotential read in
  partial core-charges read in
  partial kinetic energy density read in
  atomic valenz-charges read in
  non local Contribution for L=           0  read in
    real space projection operators read in
  non local Contribution for L=           0  read in
    real space projection operators read in
  non local Contribution for L=           1  read in
    real space projection operators read in
  non local Contribution for L=           1  read in
    real space projection operators read in
    PAW grid and wavefunctions read in
 
   number of l-projection  operators is LMAX  =           4
   number of lm-projection operators is LMMAX =           8
 
 POTCAR:    PAW_PBE Nb_sv 25May2007               
   VRHFIN =Nb: 4p5s4d                                                           
   LEXCH  = PE                                                                  
   EATOM  =  1555.1913 eV,  114.3033 Ry                                         
                                                                                
   TITEL  = PAW_PBE Nb_sv 25May2007                                             
   LULTRA =        F    use ultrasoft PP ?                                      
   IUNSCR =        1    unscreen: 0-lin 1-nonlin 2-no                           
   RPACOR =    1.800    partial core radius                                     
   POMASS =   92.910; ZVAL   =   13.000    mass and valenz                      
   RCORE  =    2.400    outmost cutoff radius                                   
   RWIGS  =    2.400; RWIGS  =    1.270    wigner-seitz radius (au A)           
   ENMAX  =  293.235; ENMIN  =  219.927 eV                                      
   ICORE  =        3    local potential                                         
   LCOR   =        T    correct aug charges                                     
   LPAW   =        T    paw PP                                                  
   EAUG   =  455.659                                                            
   DEXC   =    0.000                                                            
   RMAX   =    2.456    core radius for proj-oper                               
   RAUG   =    1.300    factor for augmentation sphere                          
   RDEP   =    2.451    radius for radial grids                                 
   RDEPT  =    1.956    core radius for aug-charge                              
                                                                                
   Atomic configuration                                                         
   11 entries                                                                   
     n  l   j            E        occ.                                          
     1  0  0.50    -18805.2457   2.0000                                         
     2  0  0.50     -2630.2869   2.0000                                         
     2  1  1.50     -2348.4046   6.0000                                         
     3  0  0.50      -438.8757   2.0000                                         
     3  1  1.50      -346.7588   6.0000                                         
     3  2  2.50      -196.2560  10.0000                                         
     4  0  0.50       -58.3859   2.0000                                         
     5  0  0.50        -3.9816   1.0000                                         
     4  1  1.50       -34.5141   6.0000                                         
     4  2  2.50        -3.0408   4.0000                                         
     4  3  2.50        -1.3606   0.0000                                         
   Description                                                                  
     l       E           TYP  RCUT    TYP  RCUT                                 
     0    -58.3859094     23  2.200                                             
     0     -3.9816262     23  2.200                                             
     1    -34.5140738     23  2.200                                             
     1     13.6058260     23  2.200                                             
     2     -3.0408010     23  2.200                                             
     2     -0.1283038     23  2.200                                             
     3     -1.3605826     23  2.400                                             
  local pseudopotential read in
  partial core-charges read in
  partial kinetic energy density read in
  atomic valenz-charges read in
  non local Contribution for L=           0  read in
    real space projection operators read in
  non local Contribution for L=           0  read in
    real space projection operators read in
  non local Contribution for L=           1  read in
    real space projection operators read in
  non local Contribution for L=           1  read in
    real space projection operators read in
  non local Contribution for L=           2  read in
    real space projection operators read in
  non local Contribution for L=           2  read in
    real space projection operators read in
    PAW grid and wavefunctions read in
 
   number of l-projection  operators is LMAX  =           6
   number of lm-projection operators is LMMAX =          18
 
 POTCAR:    PAW_PBE Ta 17Jan2003                  
   VRHFIN =Ta:  6s5d                                                            
   LEXCH  = PE                                                                  
   EATOM  =   130.6506 eV,    9.6025 Ry                                         
                                                                                
   TITEL  = PAW_PBE Ta 17Jan2003                                                
   LULTRA =        F    use ultrasoft PP ?                                      
   IUNSCR =        1    unscreen: 0-lin 1-nonlin 2-no                           
   RPACOR =    2.330    partial core radius                                     
   POMASS =  180.948; ZVAL   =    5.000    mass and valenz                      
   RCORE  =    2.900    outmost cutoff radius                                   
   RWIGS  =    2.840; RWIGS  =    1.503    wigner-seitz radius (au A)           
   ENMAX  =  223.667; ENMIN  =  167.750 eV                                      
   RCLOC  =    2.205    cutoff for local pot                                    
   LCOR   =        T    correct aug charges                                     
   LPAW   =        T    paw PP                                                  
   EAUG   =  332.075                                                            
   DEXC   =    0.000                                                            
   RMAX   =    2.970    core radius for proj-oper                               
   RAUG   =    1.300    factor for augmentation sphere                          
   RDEP   =    3.060    radius for radial grids                                 
   RDEPT  =    2.354    core radius for aug-charge                              
                                                                                
   Atomic configuration                                                         
   16 entries                                                                   
     n  l   j            E        occ.                                          
     1  0  0.50    -67341.2807   2.0000                                         
     2  0  0.50    -11566.9376   2.0000                                         
     2  1  1.50    -10134.1182   6.0000                                         
     3  0  0.50     -2648.5620   2.0000                                         
     3  1  1.50     -2222.6012   6.0000                                         
     3  2  2.50     -1726.3120  10.0000                                         
     4  0  0.50      -538.6961   2.0000                                         
     4  1  1.50      -399.0129   6.0000                                         
     4  2  2.50      -220.3959  10.0000                                         
     4  3  3.50       -23.0374  14.0000                                         
     5  0  0.50       -71.2901   2.0000                                         
     5  1  1.50       -37.8225   6.0000                                         
     5  2  2.50        -2.6455   4.0000                                         
     6  0  0.50        -4.9623   1.0000                                         
     6  1  1.50        -1.3606   0.0000                                         
     5  3  2.50        -1.3606   0.0000                                         
   Description                                                                  
     l       E           TYP  RCUT    TYP  RCUT                                 
     2     -2.6455043     23  2.500                                             
     2     -0.6258895     23  2.500                                             
     0     -4.9622780     23  2.500                                             
     0      4.7531321     23  2.500                                             
     1     -1.3605826     23  2.900                                             
     1     27.2116520     23  2.900                                             
  local pseudopotential read in
  partial core-charges read in
  partial kinetic energy density read in
  atomic valenz-charges read in
  non local Contribution for L=           2  read in
    real space projection operators read in
  non local Contribution for L=           2  read in
    real space projection operators read in
  non local Contribution for L=           0  read in
    real space projection operators read in
  non local Contribution for L=           0  read in
    real space projection operators read in
  non local Contribution for L=           1  read in
    real space projection operators read in
  non local Contribution for L=           1  read in
    real space projection operators read in
    PAW grid and wavefunctions read in
 
   number of l-projection  operators is LMAX  =           6
   number of lm-projection operators is LMMAX =          18
 
 POTCAR:    PAW_PBE Ti 08Apr2002                  
   VRHFIN =Ti: d3 s1                                                            
   LEXCH  = PE                                                                  
   EATOM  =    94.7928 eV,    6.9671 Ry                                         
                                                                                
   TITEL  = PAW_PBE Ti 08Apr2002                                                
   LULTRA =        F    use ultrasoft PP ?                                      
   IUNSCR =        1    unscreen: 0-lin 1-nonlin 2-no                           
   RPACOR =    2.200    partial core radius                                     
   POMASS =   47.880; ZVAL   =    4.000    mass and valenz                      
   RCORE  =    2.800    outmost cutoff radius                                   
   RWIGS  =    2.500; RWIGS  =    1.323    wigner-seitz radius (au A)           
   ENMAX  =  178.330; ENMIN  =  133.747 eV                                      
   RCLOC  =    2.215    cutoff for local pot                                    
   LCOR   =        T    correct aug charges                                     
   LPAW   =        T    paw PP                                                  
   EAUG   =  328.883                                                            
   DEXC   =    0.000                                                            
   RMAX   =    2.868    core radius for proj-oper                               
   RAUG   =    1.300    factor for augmentation sphere                          
   RDEP   =    2.885    radius for radial grids                                 
   RDEPT  =    2.320    core radius for aug-charge                              
                                                                                
   Atomic configuration                                                         
    9 entries                                                                   
     n  l   j            E        occ.                                          
     1  0  0.50     -4865.3608   2.0000                                         
     2  0  0.50      -533.1367   2.0000                                         
     2  1  1.50      -440.5031   6.0000                                         
     3  0  0.50       -59.3186   2.0000                                         
     3  1  1.50       -35.7012   6.0000                                         
     3  2  2.50        -1.9157   3.0000                                         
     4  0  0.50        -3.7291   1.0000                                         
     4  1  1.50        -4.0817   0.0000                                         
     4  3  2.50        -1.3606   0.0000                                         
   Description                                                                  
     l       E           TYP  RCUT    TYP  RCUT                                 
     2     -1.9156924     23  2.800                                             
     2     -0.4062961     23  2.800                                             
     0     -3.7290832     23  2.800                                             
     0     20.4087390     23  2.800                                             
     1     -5.4423304     23  2.800                                             
  local pseudopotential read in
  partial core-charges read in
  partial kinetic energy density read in
  atomic valenz-charges read in
  non local Contribution for L=           2  read in
    real space projection operators read in
  non local Contribution for L=           2  read in
    real space projection operators read in
  non local Contribution for L=           0  read in
    real space projection operators read in
  non local Contribution for L=           0  read in
    real space projection operators read in
  non local Contribution for L=           1  read in
    real space projection operators read in
    PAW grid and wavefunctions read in
 
   number of l-projection  operators is LMAX  =           5
   number of lm-projection operators is LMMAX =          15
 
 POTCAR:   PAW_PBE Zr 08Apr2002                   
   VRHFIN =Zr: 5s4d5p                                                           
   LEXCH  = PE                                                                  
   EATOM  =    77.8472 eV,    5.7216 Ry                                         
                                                                                
   TITEL  = PAW_PBE Zr 08Apr2002                                                
   LULTRA =        F    use ultrasoft PP ?                                      
   IUNSCR =        1    unscreen: 0-lin 1-nonlin 2-no                           
   RPACOR =    2.200    partial core radius                                     
   POMASS =   91.224; ZVAL   =    4.000    mass and valenz                      
   RCORE  =    3.000    outmost cutoff radius                                   
   RWIGS  =    3.070; RWIGS  =    1.625    wigner-seitz radius (au A)           
   ENMAX  =  154.632; ENMIN  =  115.974 eV                                      
   RCLOC  =    2.213    cutoff for local pot                                    
   LCOR   =        T    correct aug charges                                     
   LPAW   =        T    paw PP                                                  
   EAUG   =  243.217                                                            
   DEXC   =    -.082                                                            
   RMAX   =    3.708    core radius for proj-oper                               
   RAUG   =    1.300    factor for augmentation sphere                          
   RDEP   =    3.146    radius for radial grids                                 
   QCUT   =   -3.371; QGAM   =    6.742    optimization parameters              
                                                                                
   Description                                                                  
     l     E      TYP  RCUT    TYP  RCUT                                        
     2   .000     23  3.000                                                     
     2   .000     23  3.000                                                     
     0   .000     23  3.000                                                     
     0  2.000     23  3.000                                                     
     1  -.400     23  3.000                                                     
     3   .000      7   .000                                                     
  local pseudopotential read in
  partial core-charges read in
  atomic valenz-charges read in
  non local Contribution for L=           2  read in
    real space projection operators read in
  non local Contribution for L=           2  read in
    real space projection operators read in
  non local Contribution for L=           0  read in
    real space projection operators read in
  non local Contribution for L=           0  read in
    real space projection operators read in
  non local Contribution for L=           1  read in
    real space projection operators read in
    PAW grid and wavefunctions read in
 
   number of l-projection  operators is LMAX  =           5
   number of lm-projection operators is LMMAX =          15
 
 POTCAR:    PAW_PBE O 08Apr2002                   
   VRHFIN =O: s2p4                                                              
   LEXCH  = PE                                                                  
   EATOM  =   432.3788 eV,   31.7789 Ry                                         
                                                                                
   TITEL  = PAW_PBE O 08Apr2002                                                 
   LULTRA =        F    use ultrasoft PP ?                                      
   IUNSCR =        1    unscreen: 0-lin 1-nonlin 2-no                           
   RPACOR =    1.200    partial core radius                                     
   POMASS =   16.000; ZVAL   =    6.000    mass and valenz                      
   RCORE  =    1.520    outmost cutoff radius                                   
   RWIGS  =    1.550; RWIGS  =    0.820    wigner-seitz radius (au A)           
   ENMAX  =  400.000; ENMIN  =  300.000 eV                                      
   ICORE  =        2    local potential                                         
   LCOR   =        T    correct aug charges                                     
   LPAW   =        T    paw PP                                                  
   EAUG   =  605.392                                                            
   DEXC   =    0.000                                                            
   RMAX   =    1.553    core radius for proj-oper                               
   RAUG   =    1.300    factor for augmentation sphere                          
   RDEP   =    1.550    radius for radial grids                                 
   RDEPT  =    1.329    core radius for aug-charge                              
                                                                                
   Atomic configuration                                                         
    4 entries                                                                   
     n  l   j            E        occ.                                          
     1  0  0.50      -514.6923   2.0000                                         
     2  0  0.50       -23.9615   2.0000                                         
     2  1  0.50        -9.0305   4.0000                                         
     3  2  1.50        -9.5241   0.0000                                         
   Description                                                                  
     l       E           TYP  RCUT    TYP  RCUT                                 
     0    -23.9615318     23  1.200                                             
     0     -9.5240782     23  1.200                                             
     1     -9.0304911     23  1.520                                             
     1      8.1634956     23  1.520                                             
     2     -9.5240782      7  1.500                                             
  local pseudopotential read in
  partial core-charges read in
  partial kinetic energy density read in
  kinetic energy density of atom read in
  atomic valenz-charges read in
  non local Contribution for L=           0  read in
    real space projection operators read in
  non local Contribution for L=           0  read in
    real space projection operators read in
  non local Contribution for L=           1  read in
    real space projection operators read in
  non local Contribution for L=           1  read in
    real space projection operators read in
    PAW grid and wavefunctions read in
 
   number of l-projection  operators is LMAX  =           4
   number of lm-projection operators is LMMAX =           8
 

 ----------------------------------------------------------------------------- 
|                                                                             |
|  ADVICE TO THIS USER RUNNING 'VASP/VAMP'   (HEAR YOUR MASTER'S VOICE ...):  |
|                                                                             |
|      You have a (more or less) 'large supercell' and for larger cells       |
|      it might be more efficient to use real space projection opertators     |
|      So try LREAL= Auto  in the INCAR   file.                               |
|      Mind:          For very  accurate calculation you might also keep the  |
|      reciprocal projection scheme          (i.e. LREAL=.FALSE.)             |
|                                                                             |
 ----------------------------------------------------------------------------- 

 WARNING: PSMAXN for non-local potential too small
          PSMAXN should be >   12.5490833729506       NTYP=           5
  PAW_PBE Al 04Jan2001                  :
 energy of atom  1       EATOM=  -53.5387
 kinetic energy error for atom=    0.0002 (will be added to EATOM!!)
  PAW_PBE Nb_sv 25May2007               :
 energy of atom  2       EATOM=-1555.1913
 kinetic energy error for atom=    0.0037 (will be added to EATOM!!)
  PAW_PBE Ta 17Jan2003                  :
 energy of atom  3       EATOM= -130.6506
 kinetic energy error for atom=    0.0004 (will be added to EATOM!!)
  PAW_PBE Ti 08Apr2002                  :
 energy of atom  4       EATOM=  -94.7928
 kinetic energy error for atom=    0.0001 (will be added to EATOM!!)
 PAW_PBE Zr 08Apr2002                   :
 energy of atom  5       EATOM=  -77.8472
 kinetic energy error for atom=    0.0001 (will be added to EATOM!!)
  PAW_PBE O 08Apr2002                   :
 energy of atom  6       EATOM= -432.3788
 kinetic energy error for atom=    0.0168 (will be added to EATOM!!)
 
 
 POSCAR: Al Nb Ta Ti Zr                          
  positions in direct lattice
  velocities in cartesian coordinates
 exchange correlation table for  LEXCH =        8
   RHO(1)=    0.500       N(1)  =     2000
   RHO(2)=  100.500       N(2)  =     4000
 


--------------------------------------------------------------------------------------------------------


 ion  position               nearest neighbor table
   1  0.623  0.867  0.376-  34 2.83  25 2.88  24 2.88   9 2.88  13 2.90   4 2.91  61 2.93  15 3.16
                            41 3.35  17 3.40
   2  0.622  0.390  0.546-  31 2.78  14 2.78  23 2.79  26 2.79  33 2.81  10 2.88   7 2.89  62 2.98
                            18 3.03  16 3.14  17 3.18   3 3.31  42 3.33
   3  0.616  0.645  0.627-  32 2.78  14 2.87  23 2.88  33 2.90   8 2.91  27 2.95  26 3.01  45 3.14
                             2 3.31
   4  0.618  0.084  0.450-  31 2.80  24 2.86  34 2.87  13 2.88   1 2.91  25 2.92   7 2.92  10 2.93
                            62 2.99  12 3.15  28 3.16  46 3.24
   5  0.976  0.640  0.554-  30 2.76  27 2.82  42 2.92  56 2.96  54 2.99  59 3.02  52 3.02  58 3.07
                            63 3.08  47 3.16  57 3.34
   6  0.980  0.121  0.378-  29 2.80  28 2.80  53 2.91  41 2.96  51 3.05  55 3.05  60 3.08  57 3.37

   7  0.729  0.343  0.458-  28 2.77  29 2.83  31 2.85   2 2.89  17 2.89  11 2.90   4 2.92  62 3.02
                            63 3.07  42 3.07
   8  0.726  0.904  0.621-  30 2.62  12 2.73  27 2.74  32 2.75  18 2.80   3 2.91  64 3.11  62 3.14

   9  0.517  0.608  0.367-  35 2.84  15 2.85  17 2.87   1 2.88  11 2.89  61 2.95  43 3.10
  10  0.514  0.132  0.541-  18 2.77  36 2.78  16 2.80  12 2.86   2 2.88   4 2.93  31 2.96  46 2.96
                            62 3.09  44 3.12
  11  0.618  0.343  0.369-  24 2.75  34 2.83  31 2.87   9 2.89   7 2.90  61 2.96  43 3.27
  12  0.621  0.875  0.538-  13 2.70   8 2.73  32 2.73  23 2.80  25 2.82  10 2.86  33 2.91  62 2.93
                             4 3.15  44 3.36
  13  0.742  0.843  0.462-  12 2.70  17 2.87   4 2.88  30 2.88   1 2.90  28 2.94  63 2.98  23 2.98
                            41 3.05  57 3.27  62 3.46
  14  0.743  0.407  0.627-  27 2.71   2 2.78  42 2.81  18 2.82   3 2.87  64 2.99  58 3.13
  15  0.394  0.847  0.369-  22 2.68  19 2.76  25 2.83  34 2.84   9 2.85  39 2.98   1 3.16  46 3.43

  16  0.395  0.369  0.542-  20 2.64  21 2.65  26 2.74  10 2.80  33 2.85  31 2.86  37 2.90  40 3.07
                             2 3.14
  17  0.619  0.602  0.458-  25 2.81  23 2.81  33 2.82  31 2.85   9 2.87  13 2.87   7 2.89  61 2.95
                            35 3.03   2 3.18   1 3.40  63 3.44
  18  0.629  0.162  0.622-  26 2.77  10 2.77  62 2.78   8 2.80  14 2.82  32 2.84   2 3.03  64 3.31
                            36 3.31
  19  0.279  0.834  0.451-  15 2.76  35 2.94  46 2.96  39 2.97  25 2.99  44 3.00  60 3.07  51 3.08
                            47 3.12  56 3.17
  20  0.285  0.381  0.621-  16 2.64  36 2.84  26 2.94  45 2.98  21 2.99  52 3.04  59 3.05  40 3.14
                            48 3.15
  21  0.280  0.592  0.541-  16 2.65  59 2.89  45 2.93  35 2.98  52 2.99  20 2.99  44 3.00  33 3.04
                            37 3.06  47 3.10  56 3.14
  22  0.283  0.077  0.361-  15 2.68  46 2.97  43 2.97  34 2.99  51 3.02  55 3.10  60 3.10
  23  0.734  0.632  0.541-  27 2.70  30 2.77   2 2.79  12 2.80  17 2.81   3 2.88  63 2.97  13 2.98
                            42 2.98
  24  0.740  0.115  0.366-  29 2.73  11 2.75  28 2.85   4 2.86   1 2.88  41 3.00
  25  0.496  0.836  0.458-  35 2.78  17 2.81  12 2.82  15 2.83   1 2.88   4 2.92  44 2.98  19 2.99
                            46 2.99  33 3.04
  26  0.498  0.381  0.627-  16 2.74  18 2.77   2 2.79  36 2.87  20 2.94   3 3.01  45 3.02
  27  0.831  0.661  0.626-  23 2.70  14 2.71   8 2.74   5 2.82  58 2.83  30 2.87   3 2.95  54 3.13
                            42 3.49
  28  0.847  0.110  0.455-  62 2.76   7 2.77   6 2.80  24 2.85  57 2.90  13 2.94  53 2.98  29 3.15
                             4 3.16  50 3.24  41 3.36
  29  0.852  0.349  0.376-  24 2.73   6 2.80   7 2.83  53 2.94  61 2.98  49 3.07  28 3.15  63 3.25

  30  0.851  0.866  0.551-   8 2.62   5 2.76  23 2.77  27 2.87  13 2.88  54 2.90  57 2.95  62 2.98
                            50 3.10
  31  0.522  0.339  0.461-   2 2.78   4 2.80  17 2.85   7 2.85  35 2.86  16 2.86  11 2.87  46 2.95
                            10 2.96  43 3.11
  32  0.526  0.905  0.624-  65 2.00  12 2.73   8 2.75   3 2.78  36 2.82  18 2.84  44 2.97  45 3.07

  33  0.500  0.626  0.540-   2 2.81  17 2.82  35 2.85  16 2.85   3 2.90  12 2.91  44 2.91  45 2.93
                            25 3.04  21 3.04
  34  0.499  0.102  0.365-  11 2.83   1 2.83  15 2.84   4 2.87  43 2.91  46 2.98  22 2.99
  35  0.400  0.580  0.451-  25 2.78   9 2.84  33 2.85  31 2.86  37 2.88  39 2.93  19 2.94  21 2.98
                            17 3.03  43 3.08
  36  0.390  0.125  0.620-  65 2.20  10 2.78  40 2.82  32 2.82  20 2.84  26 2.87  38 2.95  44 3.15
                            18 3.31
  37  0.255  0.366  0.464-  35 2.88  16 2.90  47 3.02  60 3.04  43 3.05  21 3.06  55 3.08  46 3.08
                            52 3.11  40 3.23  39 3.39
  38  0.237  0.911  0.626-  65 2.02  56 2.83  59 2.91  44 2.94  36 2.95  40 3.02  48 3.12  45 3.23
                            54 3.26
  39  0.252  0.614  0.376-  35 2.93  19 2.97  15 2.98  47 3.07  43 3.07  51 3.07  55 3.08  37 3.39
                            49 3.53
  40  0.244  0.134  0.548-  36 2.82  38 3.02  60 3.04  16 3.07  52 3.07  44 3.10  48 3.14  20 3.14
                            56 3.16  46 3.22  37 3.23  50 3.42
  41  0.865  0.859  0.370-   6 2.96  24 3.00  61 3.05  13 3.05  57 3.06  49 3.12   1 3.35  28 3.36
                            51 3.49  63 3.53
  42  0.864  0.383  0.545-  14 2.81   5 2.92  62 2.98  23 2.98   7 3.07  58 3.09  63 3.13  50 3.15
                            53 3.20  64 3.33   2 3.33  52 3.45  27 3.49
  43  0.381  0.352  0.373-  34 2.91  22 2.97  37 3.05  39 3.07  35 3.08   9 3.10  31 3.11  55 3.26
                            11 3.27  46 3.29
  44  0.377  0.873  0.547-  65 2.44  33 2.91  38 2.94  32 2.97  25 2.98  21 3.00  19 3.00  40 3.10
                            45 3.11  10 3.12  36 3.15  46 3.35  56 3.36  12 3.36
  45  0.388  0.654  0.630-  65 2.36  21 2.93  33 2.93  20 2.98  26 3.02  32 3.07  44 3.11   3 3.14
                            38 3.23  59 3.30
  46  0.384  0.104  0.456-  31 2.95  19 2.96  10 2.96  22 2.97  34 2.98  25 2.99  37 3.08  40 3.22
                             4 3.24  60 3.27  43 3.29  44 3.35  15 3.43
  47  0.117  0.611  0.465-  37 3.02  56 3.06  39 3.07  21 3.10  19 3.12  53 3.14  49 3.15   5 3.16
                            57 3.17  52 3.17  63 3.42  51 3.52  55 3.80
  48  0.108  0.177  0.638-  66 2.08  50 3.06  38 3.12  40 3.14  20 3.15  52 3.18  58 3.22  54 3.26
                            64 3.32
  49  0.996  0.593  0.368-  63 3.05  29 3.07  41 3.12  47 3.15  51 3.16  55 3.23  53 3.44  39 3.53
                            61 3.65  57 3.82
  50  0.996  0.114  0.546-  48 3.06  64 3.07  30 3.10  52 3.14  54 3.15  42 3.15  57 3.19  56 3.21
                            28 3.24  53 3.29  60 3.36  40 3.42  62 3.55
  51  0.119  0.872  0.375-  60 3.00  22 3.02   6 3.05  39 3.07  19 3.08  57 3.16  49 3.16  41 3.49
                            47 3.52
  52  0.114  0.394  0.551-  21 2.99   5 3.02  59 3.04  20 3.04  40 3.07  37 3.11  50 3.14  47 3.17
                            48 3.18  53 3.20  58 3.27  42 3.45
  53  1.000  0.331  0.453-   6 2.91  29 2.94  28 2.98  60 3.06  63 3.08  55 3.09  47 3.14  52 3.20
                            42 3.20  50 3.29  49 3.44
  54  0.001  0.876  0.624-  30 2.90  56 2.99   5 2.99  59 3.09  27 3.13  50 3.15  64 3.23  38 3.26
                            48 3.26
  55  0.145  0.332  0.368-   6 3.05  37 3.08  39 3.08  53 3.09  22 3.10  49 3.23  60 3.24  43 3.26
                            47 3.80
  56  0.135  0.845  0.540-  38 2.83   5 2.96  54 2.99  57 2.99  59 3.03  47 3.06  21 3.14  40 3.16
                            19 3.17  50 3.21  44 3.36  60 3.42
  57  0.979  0.876  0.465-  28 2.90  30 2.95  56 2.99  41 3.06  63 3.11  60 3.13  51 3.16  47 3.17
                            50 3.19  13 3.27   5 3.34   6 3.37  49 3.82
  58  0.966  0.444  0.642-  66 2.08  27 2.83   5 3.07  42 3.09  64 3.10  14 3.13  59 3.16  48 3.22
                            52 3.27
  59  0.150  0.634  0.621-  21 2.89  38 2.91   5 3.02  56 3.03  52 3.04  20 3.05  54 3.09  58 3.16
                            45 3.30
  60  0.147  0.092  0.451-  51 3.00  37 3.04  40 3.04  53 3.06  19 3.07   6 3.08  22 3.10  57 3.13
                            55 3.24  46 3.27  50 3.36  56 3.42
  61  0.731  0.606  0.367-   1 2.93  17 2.95   9 2.95  11 2.96  29 2.98  41 3.05  63 3.17  49 3.65

  62  0.739  0.129  0.538-  28 2.76  18 2.78  12 2.93   2 2.98  30 2.98  42 2.98   4 2.99   7 3.02
                            10 3.09   8 3.14  64 3.23  13 3.46  50 3.55
  63  0.869  0.592  0.458-  23 2.97  13 2.98  49 3.05   7 3.07   5 3.08  53 3.08  57 3.11  42 3.13
                            61 3.17  29 3.25  47 3.42  17 3.44  41 3.53
  64  0.868  0.153  0.635-  66 2.15  14 2.99  50 3.07  58 3.10   8 3.11  62 3.23  54 3.23  18 3.31
                            48 3.32  42 3.33
  65  0.382  0.900  0.635-  32 2.00  38 2.02  36 2.20  45 2.36  44 2.44
  66  0.986  0.250  0.674-  58 2.08  48 2.08  64 2.15
 
  LATTYP: Found a simple orthorhombic cell.
 ALAT       =     9.5644817352
 B/A-ratio  =     1.4398428730
 C/A-ratio  =     2.8922184390
  
  Lattice vectors:
  
 A1 = (   0.0000000000,  -9.5644817352,   0.0000000000)
 A2 = ( -13.7713508606,   0.0000000000,   0.0000000000)
 A3 = (   0.0000000000,   0.0000000000, -27.6625704340)


Analysis of symmetry for initial positions (statically):
=====================================================================
 Subroutine PRICEL returns:
 Original cell was already a primitive cell.
 

 Routine SETGRP: Setting up the symmetry group for a 
 simple orthorhombic supercell.


 Subroutine GETGRP returns: Found  1 space group operations
 (whereof  1 operations were pure point group operations)
 out of a pool of  8 trial point group operations.


The static configuration has the point symmetry C_1 .


Analysis of symmetry for dynamics (positions and initial velocities):
=====================================================================
 Subroutine PRICEL returns:
 Original cell was already a primitive cell.
 

 Routine SETGRP: Setting up the symmetry group for a 
 simple orthorhombic supercell.


 Subroutine GETGRP returns: Found  1 space group operations
 (whereof  1 operations were pure point group operations)
 out of a pool of  8 trial point group operations.


The dynamic configuration has the point symmetry C_1 .


Analysis of constrained symmetry for selective dynamics:
=====================================================================
 Subroutine PRICEL returns:
 Original cell was already a primitive cell.
 

 Routine SETGRP: Setting up the symmetry group for a 
 simple orthorhombic supercell.


 Subroutine GETGRP returns: Found  1 space group operations
 (whereof  1 operations were pure point group operations)
 out of a pool of  8 trial point group operations.


The constrained configuration has the point symmetry C_1 .


 Subroutine INISYM returns: Found  1 space group operations
 (whereof  1 operations are pure point group operations),
 and found     1 'primitive' translations

 
 
 KPOINTS: k-points                                

Automatic generation of k-mesh.
Space group operators:
 irot       det(A)        alpha          n_x          n_y          n_z        tau_x        tau_y        tau_z
    1     1.000000     0.000001     1.000000     0.000000     0.000000     0.000000     0.000000     0.000000
 
 Subroutine IBZKPT returns following result:
 ===========================================
 
 Found      5 irreducible k-points:
 
 Following reciprocal coordinates:
            Coordinates               Weight
  0.000000  0.000000  0.000000      1.000000
  0.333333  0.000000  0.000000      2.000000
  0.000000  0.333333  0.000000      2.000000
  0.333333  0.333333  0.000000      2.000000
 -0.333333  0.333333  0.000000      2.000000
 
 Following cartesian coordinates:
            Coordinates               Weight
  0.000000  0.000000  0.000000      1.000000
  0.024205  0.000000  0.000000      2.000000
  0.000000  0.034851  0.000000      2.000000
  0.024205  0.034851  0.000000      2.000000
 -0.024205  0.034851  0.000000      2.000000
 
 
 Subroutine IBZKPT_HF returns following result:
 ==============================================
 
 Found      9 k-points in 1st BZ
 the following      9 k-points will be used (e.g. in the exchange kernel)
 Following reciprocal coordinates:   # in IRBZ
  0.000000  0.000000  0.000000    0.11111111   1 t-inv F
  0.333333  0.000000  0.000000    0.11111111   2 t-inv F
  0.000000  0.333333  0.000000    0.11111111   3 t-inv F
  0.333333  0.333333  0.000000    0.11111111   4 t-inv F
 -0.333333  0.333333  0.000000    0.11111111   5 t-inv F
 -0.333333  0.000000  0.000000    0.11111111   2 t-inv T
  0.000000 -0.333333  0.000000    0.11111111   3 t-inv T
 -0.333333 -0.333333  0.000000    0.11111111   4 t-inv T
  0.333333 -0.333333  0.000000    0.11111111   5 t-inv T


--------------------------------------------------------------------------------------------------------




 Dimension of arrays:
   k-points           NKPTS =      5   k-points in BZ     NKDIM =      5   number of bands    NBANDS=    240
   number of dos      NEDOS =    301   number of ions     NIONS =     66
   non local maximal  LDIM  =      6   non local SUM 2l+1 LMDIM =     18
   total plane-waves  NPLWV = 846720
   max r-space proj   IRMAX =      1   max aug-charges    IRDMAX=  25433
   dimension x,y,z NGX =    84 NGY =   60 NGZ =  168
   dimension x,y,z NGXF=   168 NGYF=  120 NGZF=  336
   support grid    NGXF=   168 NGYF=  120 NGZF=  336
   ions per type =               6  10   4  18  26   2
   NGX,Y,Z   is equivalent  to a cutoff of  10.14, 10.43, 10.10 a.u.
   NGXF,Y,Z  is equivalent  to a cutoff of  20.28, 20.86, 20.19 a.u.

 SYSTEM =  (110) surface DM                        
 POSCAR =  Al Nb Ta Ti Zr                          

 Startparameter for this run:
   NWRITE =      2    write-flag & timer
   PREC   = normal    normal or accurate (medium, high low for compatibility)
   ISTART =      0    job   : 0-new  1-cont  2-samecut
   ICHARG =      2    charge: 1-file 2-atom 10-const
   ISPIN  =      1    spin polarized calculation?
   LNONCOLLINEAR =      F non collinear calculations
   LSORBIT =      F    spin-orbit coupling
   INIWAV =      1    electr: 0-lowe 1-rand  2-diag
   LASPH  =      F    aspherical Exc in radial PAW
   METAGGA=      F    non-selfconsistent MetaGGA calc.

 Electronic Relaxation 1
   ENCUT  =  600.0 eV  44.10 Ry    6.64 a.u.  27.50 19.10 55.25*2*pi/ulx,y,z
   ENINI  =  600.0     initial cutoff
   ENAUG  =  605.4 eV  augmentation charge cutoff
   NELM   =     60;   NELMIN=  2; NELMDL= -5     # of ELM steps 
   EDIFF  = 0.1E-05   stopping-criterion for ELM
   LREAL  =      F    real-space projection
   NLSPLINE    = F    spline interpolate recip. space projectors
   LCOMPAT=      F    compatible to vasp.4.4
   GGA_COMPAT  = T    GGA compatible to vasp.4.4-vasp.4.6
   LMAXPAW     = -100 max onsite density
   LMAXMIX     =    2 max onsite mixed and CHGCAR
   VOSKOWN=      0    Vosko Wilk Nusair interpolation
   ROPT   =    0.00000   0.00000   0.00000   0.00000
   ROPT   =    0.00000   0.00000
 Ionic relaxation
   EDIFFG = 0.1E-04   stopping-criterion for IOM
   NSW    =    829    number of steps for IOM
   NBLOCK =      1;   KBLOCK =    829    inner block; outer block 
   IBRION =      5    ionic relax: 0-MD 1-quasi-New 2-CG
   NFREE  =      2    steps in history (QN), initial steepest desc. (CG)
   ISIF   =      2    stress and relaxation
   IWAVPR =     11    prediction:  0-non 1-charg 2-wave 3-comb
   ISYM   =      2    0-nonsym 1-usesym 2-fastsym
   LCORR  =      T    Harris-Foulkes like correction to forces

   POTIM  = 0.0150    time-step for ionic-motion
   TEIN   =    0.0    initial temperature
   TEBEG  =    0.0;   TEEND  =   0.0 temperature during run
   SMASS  =  -3.00    Nose mass-parameter (am)
   estimated Nose-frequenzy (Omega)   =  0.10E-29 period in steps =****** mass=  -0.433E-26a.u.
   SCALEE = 1.0000    scale energy and forces
   NPACO  =    256;   APACO  = 16.0  distance and # of slots for P.C.
   PSTRESS=    0.0 pullay stress

  Mass of Ions in am
   POMASS =  26.98 92.91180.95 47.88 91.22 16.00
  Ionic Valenz
   ZVAL   =   3.00 13.00  5.00  4.00  4.00  6.00
  Atomic Wigner-Seitz radii
   RWIGS  =  -1.00 -1.00 -1.00 -1.00 -1.00 -1.00
  virtual crystal weights 
   VCA    =   1.00  1.00  1.00  1.00  1.00  1.00
   NELECT =     356.0000    total number of electrons
   NUPDOWN=      -1.0000    fix difference up-down

 DOS related values:
   EMIN   =  10.00;   EMAX   =-10.00  energy-range for DOS
   EFERMI =   0.00
   ISMEAR =     2;   SIGMA  =   0.10  broadening in eV -4-tet -1-fermi 0-gaus

 Electronic relaxation 2 (details)
   IALGO  =     38    algorithm
   LDIAG  =      T    sub-space diagonalisation (order eigenvalues)
   LSUBROT=      F    optimize rotation matrix (better conditioning)
   TURBO    =      0    0=normal 1=particle mesh
   IRESTART =      0    0=no restart 2=restart with 2 vectors
   NREBOOT  =      0    no. of reboots
   NMIN     =      0    reboot dimension
   EREF     =   0.00    reference energy to select bands
   IMIX   =      4    mixing-type and parameters
     AMIX     =   0.40;   BMIX     =  1.00
     AMIX_MAG =   1.60;   BMIX_MAG =  1.00
     AMIN     =   0.10
     WC   =   100.;   INIMIX=   1;  MIXPRE=   1;  MAXMIX=  60

 Intra band minimization:
   WEIMIN = 0.0010     energy-eigenvalue tresh-hold
   EBREAK =  0.10E-08  absolut break condition
   DEPER  =   0.30     relativ break condition  

   TIME   =   0.40     timestep for ELM

  volume/ion in A,a.u.               =      55.21       372.55
  Fermi-wavevector in a.u.,A,eV,Ry     =   0.754017  1.424886  7.735485  0.568542
  Thomas-Fermi vector in A             =   1.851589
 
 Write flags
   LWAVE        =      F    write WAVECAR
   LDOWNSAMPLE  =      F    k-point downsampling of WAVECAR
   LCHARG       =      F    write CHGCAR
   LVTOT        =      F    write LOCPOT, total local potential
   LVHAR        =      F    write LOCPOT, Hartree potential only
   LELF         =      F    write electronic localiz. function (ELF)
   LORBIT       =      0    0 simple, 1 ext, 2 COOP (PROOUT), +10 PAW based schemes


 Dipole corrections
   LMONO  =      F    monopole corrections only (constant potential shift)
   LDIPOL =      F    correct potential (dipole corrections)
   IDIPOL =      0    1-x, 2-y, 3-z, 4-all directions 
   EPSILON=  1.0000000 bulk dielectric constant

 Exchange correlation treatment:
   GGA     =    --    GGA type
   LEXCH   =     8    internal setting for exchange type
   VOSKOWN=      0    Vosko Wilk Nusair interpolation
   LHFCALC =     F    Hartree Fock is set to
   LHFONE  =     F    Hartree Fock one center treatment
   AEXX    =    0.0000 exact exchange contribution

 Linear response parameters
   LEPSILON=     F    determine dielectric tensor
   LRPA    =     F    only Hartree local field effects (RPA)
   LNABLA  =     F    use nabla operator in PAW spheres
   LVEL    =     F    velocity operator in full k-point grid
   LINTERFAST=   F  fast interpolation
   KINTER  =     0    interpolate to denser k-point grid
   CSHIFT  =0.1000    complex shift for real part using Kramers Kronig
   OMEGAMAX=  -1.0    maximum frequency
   DEG_THRESHOLD= 0.2000000E-02 threshold for treating states as degnerate
   RTIME   =   -0.100 relaxation time in fs
  (WPLASMAI=    0.000 imaginary part of plasma frequency in eV, 0.658/RTIME)
   DFIELD  = 0.0000000 0.0000000 0.0000000 field for delta impulse in time
 
 Orbital magnetization related:
   ORBITALMAG=     F  switch on orbital magnetization
   LCHIMAG   =     F  perturbation theory with respect to B field
   DQ        =  0.001000  dq finite difference perturbation B field
   LLRAUG    =     F  two centre corrections for induced B field



--------------------------------------------------------------------------------------------------------


 finite differences
   using selective dynamics as specified on POSCAR
 charge density and potential will be updated during run
 non-spin polarized calculation
 Variant of blocked Davidson
 Davidson routine will perform the subspace rotation
 perform sub-space diagonalisation
    after iterative eigenvector-optimisation
 modified Broyden-mixing scheme, WC =      100.0
 initial mixing is a Kerker type mixing with AMIX =  0.4000 and BMIX =      1.0000
 Hartree-type preconditioning will be used
 using additional bands           62
 reciprocal scheme for non local part
 use partial core corrections
 calculate Harris-corrections to forces 
   (improved forces if not selfconsistent)
 use gradient corrections 
 use of overlap-Matrix (Vanderbilt PP)
 Methfessel and Paxton  Order N= 2 SIGMA  =   0.10


--------------------------------------------------------------------------------------------------------


  energy-cutoff  :      600.00
  volume of cell :     3643.60
      direct lattice vectors                 reciprocal lattice vectors
    13.771350861  0.000000000  0.000000000     0.072614518  0.000000000  0.000000000
     0.000000000  9.564481735  0.000000000     0.000000000  0.104553496  0.000000000
     0.000000000  0.000000000 27.662570434     0.000000000  0.000000000  0.036149931

  length of vectors
    13.771350861  9.564481735 27.662570434     0.072614518  0.104553496  0.036149931


 
 k-points in units of 2pi/SCALE and weight: k-points                                
   0.00000000  0.00000000  0.00000000       0.111
   0.02420484  0.00000000  0.00000000       0.222
   0.00000000  0.03485117  0.00000000       0.222
   0.02420484  0.03485117  0.00000000       0.222
  -0.02420484  0.03485117  0.00000000       0.222
 
 k-points in reciprocal lattice and weights: k-points                                
   0.00000000  0.00000000  0.00000000       0.111
   0.33333333  0.00000000  0.00000000       0.222
   0.00000000  0.33333333  0.00000000       0.222
   0.33333333  0.33333333  0.00000000       0.222
  -0.33333333  0.33333333  0.00000000       0.222
 
 position of ions in fractional coordinates (direct lattice) 
   0.62276447  0.86746430  0.37590333
   0.62172676  0.39026382  0.54640917
   0.61641990  0.64536777  0.62704702
   0.61839700  0.08363760  0.44965952
   0.97639429  0.64022929  0.55446813
   0.97963780  0.12056648  0.37767599
   0.72857308  0.34338307  0.45816820
   0.72613562  0.90411876  0.62055642
   0.51739597  0.60805875  0.36719826
   0.51416395  0.13208605  0.54054378
   0.61811078  0.34297293  0.36889183
   0.62058782  0.87513860  0.53781772
   0.74231148  0.84345710  0.46199300
   0.74275301  0.40653742  0.62657582
   0.39405298  0.84738672  0.36896032
   0.39463888  0.36945056  0.54230451
   0.61928761  0.60162497  0.45752798
   0.62935742  0.16155974  0.62210479
   0.27944195  0.83362269  0.45088327
   0.28493189  0.38072260  0.62062064
   0.28045037  0.59196611  0.54104191
   0.28324246  0.07725573  0.36149931
   0.73411483  0.63229164  0.54096785
   0.74002355  0.11549973  0.36646499
   0.49591756  0.83582580  0.45790018
   0.49842235  0.38098741  0.62653446
   0.83061470  0.66051298  0.62550773
   0.84724605  0.11017048  0.45460239
   0.85243583  0.34907103  0.37639265
   0.85134881  0.86596867  0.55064154
   0.52175105  0.33942658  0.46105252
   0.52623002  0.90489014  0.62393442
   0.50030225  0.62554966  0.54006864
   0.49943882  0.10200214  0.36464270
   0.40016663  0.58028412  0.45130253
   0.39016717  0.12490064  0.61966187
   0.25505811  0.36595738  0.46399110
   0.23673967  0.91060856  0.62570962
   0.25182599  0.61397660  0.37627308
   0.24388073  0.13368572  0.54846646
   0.86539888  0.85904646  0.37036829
   0.86374361  0.38272072  0.54524082
   0.38059813  0.35186696  0.37331264
   0.37736778  0.87255900  0.54698065
   0.38823181  0.65352607  0.62973073
   0.38408008  0.10357511  0.45579618
   0.11657381  0.61110574  0.46457054
   0.10849434  0.17746093  0.63836278
   0.99629861  0.59295863  0.36811234
   0.99599117  0.11356777  0.54556139
   0.11869311  0.87196302  0.37467704
   0.11380602  0.39422050  0.55131626
   0.99977952  0.33051389  0.45306987
   0.00143616  0.87636745  0.62427729
   0.14482272  0.33176249  0.36788561
   0.13467092  0.84473032  0.53973971
   0.97888047  0.87608504  0.46520830
   0.96639212  0.44438556  0.64225452
   0.14951851  0.63368943  0.62126357
   0.14721048  0.09173214  0.45072276
   0.73135245  0.60578495  0.36679988
   0.73869853  0.12941282  0.53842409
   0.86923259  0.59196168  0.45825814
   0.86831132  0.15277350  0.63544180
   0.38229068  0.89969118  0.63460062
   0.98574489  0.24973224  0.67428680
 
 position of ions in cartesian coordinates  (Angst):
   8.57630799  8.29684649 10.39845223
   8.56201729  3.73267118 15.11508210
   8.48893475  6.17260821 17.34573224
   8.51616202  0.79995025 12.43873821
  13.44626839  6.12346133 15.33801371
  13.49093588  1.15315590 10.44748880
  10.03343557  3.28428114 12.67411000
   9.99986839  8.64742734 17.16618561
   7.12524148  5.81576681 10.15764776
   7.08073219  1.26333466 14.95283028
   8.51222037  3.28035836 10.20449636
   8.54633259  8.37024711 14.87742057
  10.22263181  8.06723005 12.77991378
  10.22871231  3.88831971 17.33269785
   5.42664188  8.10481479 10.20639088
   5.43471053  3.53360313 15.00153678
   8.52842696  5.75423100 12.65640004
   8.66710181  1.54523516 17.20901760
   3.84829318  7.97316903 12.47259035
   3.92389701  3.64141436 17.16796204
   3.86218048  5.66184908 14.96660992
   3.90063135  0.73891098 10.00000000
  10.10975286  6.04754186 14.96456132
  10.19112400  1.10469510 10.13736353
   6.82945470  7.99424061 12.66669595
   6.86394912  3.64394713 17.33155353
  11.43868642  6.31746435 17.30315152
  11.66772263  1.05372358 12.57547056
  11.73919286  3.33868345 10.41198829
  11.72422317  8.28254157 15.23216028
   7.18521672  3.24643930 12.75389771
   7.24689828  8.65480525 17.25962989
   6.88983781  5.98305830 14.93968673
   6.87794726  0.97559764 10.08695433
   5.51083508  5.55011685 12.48418803
   5.37312893  1.19460986 17.14144026
   3.51249472  3.50019267 12.83518635
   3.26022513  8.70949891 17.30873633
   3.46798404  5.87236796 10.40868071
   3.35856703  1.27863463 15.17199215
  11.91771166  8.21633417 10.24533883
  11.89491626  3.66052536 15.08276252
   5.24135036  3.36542512 10.32678719
   5.19686412  8.34557465 15.13089070
   5.34647652  6.25063812 17.41997077
   5.28930157  0.99064225 12.60849381
   1.60537885  5.84490969 12.85121538
   1.49411359  1.69732187 17.65875546
  13.72037774  5.67134198 10.18293350
  13.71614380  1.08621682 15.09163027
   1.63456451  8.33987442 10.36453009
   1.56726262  3.77051478 15.25082495
  13.76831459  3.16119411 12.53307716
   0.01977788  8.38200047 17.26911455
   1.99440444  3.17313630 10.17666150
   1.85460055  8.07940769 14.93058787
  13.48050634  8.37929939 12.86885734
  13.30852494  4.25031755 17.76641094
   2.05907191  6.06091099 17.18574717
   2.02728715  0.87737042 12.46815015
  10.07171117  5.79401911 10.14662739
  10.17287661  1.23776658 14.89419423
  11.97050705  5.66180669 12.67659812
  11.95781991  1.46119937 17.57795361
   5.26465915  8.60507985 17.55468438
  13.57503879  2.38855949 18.65250601
 


--------------------------------------------------------------------------------------------------------


 k-point  1 :   0.0000 0.0000 0.0000  plane waves:  121663
 k-point  2 :   0.3333 0.0000 0.0000  plane waves:  121577
 k-point  3 :   0.0000 0.3333 0.0000  plane waves:  121622
 k-point  4 :   0.3333 0.3333 0.0000  plane waves:  121647
 k-point  5 :  -0.3333 0.3333 0.0000  plane waves:  121647

 maximum and minimum number of plane-waves per node :    121663   121577

 maximum number of plane-waves:    121663
 maximum index in each direction: 
   IXMAX=   27   IYMAX=   19   IZMAX=   55
   IXMIN=  -27   IYMIN=  -19   IZMIN=  -55


 serial   3D FFT for wavefunctions
 parallel 3D FFT for charge:
    minimum data exchange during FFTs selected (reduces bandwidth)


 total amount of memory used by VASP MPI-rank0   830476. kBytes
=======================================================================

   base      :      30000. kBytes
   nonl-proj :     654151. kBytes
   fftplans  :      11449. kBytes
   grid      :      55342. kBytes
   one-center:       1026. kBytes
   wavefun   :      78508. kBytes
 
     INWAV:  cpu time    0.0000: real time    0.0000
 Broyden mixing: mesh for mixing (old mesh)
   NGX = 55   NGY = 39   NGZ =111
  (NGX  =168   NGY  =120   NGZ  =336)
  gives a total of 238095 points

 initial charge density was supplied:
 charge density of overlapping atoms calculated
 number of electron     356.0000000 magnetization 
 keeping initial charge density in first step


--------------------------------------------------------------------------------------------------------


 Maximum index for augmentation-charges         1457 (set IRDMAX)


--------------------------------------------------------------------------------------------------------


 First call to EWALD:  gamma=   0.115
 Maximum number of real-space cells 3x 4x 2
 Maximum number of reciprocal cells 3x 2x 5

    FEWALD:  cpu time    0.0024: real time    0.0024


--------------------------------------- Iteration      1(   1)  ---------------------------------------


    POTLOK:  cpu time    0.1268: real time    0.1325
    SETDIJ:  cpu time    0.0099: real time    0.0100
     EDDAV:  cpu time   26.2617: real time   26.5050
       DOS:  cpu time    0.0012: real time    0.0012
    --------------------------------------------
      LOOP:  cpu time   26.3997: real time   26.6488

 eigenvalue-minimisations  :  2550
 total energy-change (2. order) : 0.3782999E+04  (-0.1299668E+05)
 number of electron     356.0000000 magnetization 
 augmentation part      356.0000000 magnetization 

 Free energy of the ion-electron system (eV)
  ---------------------------------------------------
  alpha Z        PSCENC =       529.78975023
  Ewald energy   TEWEN  =     73073.27496591
  -Hartree energ DENC   =    -91901.33009945
  -exchange      EXHF   =         0.00000000
  -V(xc)+E(xc)   XCENC  =     -3032.99278658
  PAW double counting   =     20132.38007695   -16044.74363903
  entropy T*S    EENTRO =        -0.00384973
  eigenvalues    EBANDS =        35.89769733
  atomic energy  EATOM  =     20990.72652202
  Solvation  Ediel_sol  =         0.00000000
  ---------------------------------------------------
  free energy    TOTEN  =      3782.99863766 eV

  energy without entropy =     3783.00248739  energy(sigma->0) =     3782.99960009


--------------------------------------------------------------------------------------------------------




--------------------------------------- Iteration      1(   2)  ---------------------------------------


     EDDAV:  cpu time   26.5343: real time   26.7111
       DOS:  cpu time    0.0007: real time    0.0007
    --------------------------------------------
      LOOP:  cpu time   26.5349: real time   26.7118

 eigenvalue-minimisations  :  2580
 total energy-change (2. order) :-0.3617512E+04  (-0.3485332E+04)
 number of electron     356.0000000 magnetization 
 augmentation part      356.0000000 magnetization 

 Free energy of the ion-electron system (eV)
  ---------------------------------------------------
  alpha Z        PSCENC =       529.78975023
  Ewald energy   TEWEN  =     73073.27496591
  -Hartree energ DENC   =    -91901.33009945
  -exchange      EXHF   =         0.00000000
  -V(xc)+E(xc)   XCENC  =     -3032.99278658
  PAW double counting   =     20132.38007695   -16044.74363903
  entropy T*S    EENTRO =        -0.00697574
  eigenvalues    EBANDS =     -3581.61142736
  atomic energy  EATOM  =     20990.72652202
  Solvation  Ediel_sol  =         0.00000000
  ---------------------------------------------------
  free energy    TOTEN  =       165.48638697 eV

  energy without entropy =      165.49336270  energy(sigma->0) =      165.48813090


--------------------------------------------------------------------------------------------------------




--------------------------------------- Iteration      1(   3)  ---------------------------------------


     EDDAV:  cpu time   39.9304: real time   40.1982
       DOS:  cpu time    0.0007: real time    0.0007
    --------------------------------------------
      LOOP:  cpu time   39.9310: real time   40.1989

 eigenvalue-minimisations  :  4200
 total energy-change (2. order) :-0.6591298E+03  (-0.6273465E+03)
 number of electron     356.0000000 magnetization 
 augmentation part      356.0000000 magnetization 

 Free energy of the ion-electron system (eV)
  ---------------------------------------------------
  alpha Z        PSCENC =       529.78975023
  Ewald energy   TEWEN  =     73073.27496591
  -Hartree energ DENC   =    -91901.33009945
  -exchange      EXHF   =         0.00000000
  -V(xc)+E(xc)   XCENC  =     -3032.99278658
  PAW double counting   =     20132.38007695   -16044.74363903
  entropy T*S    EENTRO =        -0.01068145
  eigenvalues    EBANDS =     -4240.73750623
  atomic energy  EATOM  =     20990.72652202
  Solvation  Ediel_sol  =         0.00000000
  ---------------------------------------------------
  free energy    TOTEN  =      -493.64339762 eV

  energy without entropy =     -493.63271617  energy(sigma->0) =     -493.64072726


--------------------------------------------------------------------------------------------------------




--------------------------------------- Iteration      1(   4)  ---------------------------------------


     EDDAV:  cpu time   38.7466: real time   39.0061
       DOS:  cpu time    0.0006: real time    0.0006
    --------------------------------------------
      LOOP:  cpu time   38.7472: real time   39.0068

 eigenvalue-minimisations  :  4080
 total energy-change (2. order) :-0.9767328E+02  (-0.9350969E+02)
 number of electron     356.0000000 magnetization 
 augmentation part      356.0000000 magnetization 

 Free energy of the ion-electron system (eV)
  ---------------------------------------------------
  alpha Z        PSCENC =       529.78975023
  Ewald energy   TEWEN  =     73073.27496591
  -Hartree energ DENC   =    -91901.33009945
  -exchange      EXHF   =         0.00000000
  -V(xc)+E(xc)   XCENC  =     -3032.99278658
  PAW double counting   =     20132.38007695   -16044.74363903
  entropy T*S    EENTRO =        -0.00838172
  eigenvalues    EBANDS =     -4338.41308567
  atomic energy  EATOM  =     20990.72652202
  Solvation  Ediel_sol  =         0.00000000
  ---------------------------------------------------
  free energy    TOTEN  =      -591.31667733 eV

  energy without entropy =     -591.30829561  energy(sigma->0) =     -591.31458190


--------------------------------------------------------------------------------------------------------




--------------------------------------- Iteration      1(   5)  ---------------------------------------


     EDDAV:  cpu time   40.2464: real time   40.5188
       DOS:  cpu time    0.0007: real time    0.0007
    CHARGE:  cpu time    0.4863: real time    0.4895
    MIXING:  cpu time    0.0044: real time    0.0044
    --------------------------------------------
      LOOP:  cpu time   40.7379: real time   41.0134

 eigenvalue-minimisations  :  4260
 total energy-change (2. order) :-0.9524899E+01  (-0.9370382E+01)
 number of electron     356.0000035 magnetization 
 augmentation part       42.5783979 magnetization 

 Broyden mixing:
  rms(total) = 0.60707E+01    rms(broyden)= 0.60707E+01
  rms(prec ) = 0.66775E+01
  weight for this iteration     100.00

 Free energy of the ion-electron system (eV)
  ---------------------------------------------------
  alpha Z        PSCENC =       529.78975023
  Ewald energy   TEWEN  =     73073.27496591
  -Hartree energ DENC   =    -91901.33009945
  -exchange      EXHF   =         0.00000000
  -V(xc)+E(xc)   XCENC  =     -3032.99278658
  PAW double counting   =     20132.38007695   -16044.74363903
  entropy T*S    EENTRO =        -0.01172511
  eigenvalues    EBANDS =     -4347.93464121
  atomic energy  EATOM  =     20990.72652202
  Solvation  Ediel_sol  =         0.00000000
  ---------------------------------------------------
  free energy    TOTEN  =      -600.84157626 eV

  energy without entropy =     -600.82985115  energy(sigma->0) =     -600.83864498


--------------------------------------------------------------------------------------------------------




--------------------------------------- Iteration      1(   6)  ---------------------------------------


    POTLOK:  cpu time    0.1165: real time    0.1170
    SETDIJ:  cpu time    0.0102: real time    0.0105
     EDDAV:  cpu time   40.5493: real time   40.8180
       DOS:  cpu time    0.0007: real time    0.0007
    CHARGE:  cpu time    0.4779: real time    0.4810
    MIXING:  cpu time    0.0044: real time    0.0097
    --------------------------------------------
      LOOP:  cpu time   41.1590: real time   41.4368

 eigenvalue-minimisations  :  4320
 total energy-change (2. order) :-0.8418359E+02  (-0.1197426E+03)
 number of electron     356.0000009 magnetization 
 augmentation part       72.9679020 magnetization 

 Broyden mixing:
  rms(total) = 0.90898E+01    rms(broyden)= 0.90898E+01
  rms(prec ) = 0.11769E+02
  weight for this iteration     100.00

 eigenvalues of (default mixing * dielectric matrix)
  average eigenvalue GAMMA=   0.3828
  0.3828

 Free energy of the ion-electron system (eV)
  ---------------------------------------------------
  alpha Z        PSCENC =       529.78975023
  Ewald energy   TEWEN  =     73073.27496591
  -Hartree energ DENC   =    -92602.32835907
  -exchange      EXHF   =         0.00000000
  -V(xc)+E(xc)   XCENC  =     -3020.08530591
  PAW double counting   =     23751.83948737   -19663.04639766
  entropy T*S    EENTRO =        -0.00242998
  eigenvalues    EBANDS =     -3745.19340221
  atomic energy  EATOM  =     20990.72652202
  Solvation  Ediel_sol  =         0.00000000
  ---------------------------------------------------
  free energy    TOTEN  =      -685.02516930 eV

  energy without entropy =     -685.02273932  energy(sigma->0) =     -685.02456180


--------------------------------------------------------------------------------------------------------




--------------------------------------- Iteration      1(   7)  ---------------------------------------


    POTLOK:  cpu time    0.1077: real time    0.1082
    SETDIJ:  cpu time    0.0072: real time    0.0073
     EDDAV:  cpu time   37.9678: real time   38.2116
       DOS:  cpu time    0.0006: real time    0.0007
    CHARGE:  cpu time    0.4852: real time    0.4901
    MIXING:  cpu time    0.0035: real time    0.0046
    --------------------------------------------
      LOOP:  cpu time   38.5720: real time   38.8225

 eigenvalue-minimisations  :  4020
 total energy-change (2. order) : 0.1116343E+03  (-0.2295927E+03)
 number of electron     356.0000023 magnetization 
 augmentation part       57.7497560 magnetization 

 Broyden mixing:
  rms(total) = 0.46871E+01    rms(broyden)= 0.46870E+01
  rms(prec ) = 0.64278E+01
  weight for this iteration     100.00

 eigenvalues of (default mixing * dielectric matrix)
  average eigenvalue GAMMA=   0.5029
  0.7838  0.2220

 Free energy of the ion-electron system (eV)
  ---------------------------------------------------
  alpha Z        PSCENC =       529.78975023
  Ewald energy   TEWEN  =     73073.27496591
  -Hartree energ DENC   =    -92116.46502526
  -exchange      EXHF   =         0.00000000
  -V(xc)+E(xc)   XCENC  =     -3023.41049373
  PAW double counting   =     23851.65562540   -19777.99760092
  entropy T*S    EENTRO =         0.00084268
  eigenvalues    EBANDS =     -4100.96546780
  atomic energy  EATOM  =     20990.72652202
  Solvation  Ediel_sol  =         0.00000000
  ---------------------------------------------------
  free energy    TOTEN  =      -573.39088147 eV

  energy without entropy =     -573.39172415  energy(sigma->0) =     -573.39109214


--------------------------------------------------------------------------------------------------------




--------------------------------------- Iteration      1(   8)  ---------------------------------------


    POTLOK:  cpu time    0.1082: real time    0.1087
    SETDIJ:  cpu time    0.0079: real time    0.0079
     EDDAV:  cpu time   37.6039: real time   37.8589
       DOS:  cpu time    0.0011: real time    0.0011
    CHARGE:  cpu time    0.4893: real time    0.4946
    MIXING:  cpu time    0.0033: real time    0.0042
    --------------------------------------------
      LOOP:  cpu time   38.2136: real time   38.4754

 eigenvalue-minimisations  :  3960
 total energy-change (2. order) :-0.3479108E+02  (-0.7895220E+02)
 number of electron     356.0000029 magnetization 
 augmentation part       45.6024680 magnetization 

 Broyden mixing:
  rms(total) = 0.41808E+01    rms(broyden)= 0.41808E+01
  rms(prec ) = 0.72201E+01
  weight for this iteration     100.00

 eigenvalues of (default mixing * dielectric matrix)
  average eigenvalue GAMMA=   0.5480
  1.1629  0.2406  0.2406

 Free energy of the ion-electron system (eV)
  ---------------------------------------------------
  alpha Z        PSCENC =       529.78975023
  Ewald energy   TEWEN  =     73073.27496591
  -Hartree energ DENC   =    -92096.43906866
  -exchange      EXHF   =         0.00000000
  -V(xc)+E(xc)   XCENC  =     -3025.79330024
  PAW double counting   =     24254.38257574   -20194.15540398
  entropy T*S    EENTRO =         0.00738522
  eigenvalues    EBANDS =     -4139.97538799
  atomic energy  EATOM  =     20990.72652202
  Solvation  Ediel_sol  =         0.00000000
  ---------------------------------------------------
  free energy    TOTEN  =      -608.18196175 eV

  energy without entropy =     -608.18934697  energy(sigma->0) =     -608.18380806


--------------------------------------------------------------------------------------------------------




--------------------------------------- Iteration      1(   9)  ---------------------------------------


    POTLOK:  cpu time    0.1089: real time    0.1095
    SETDIJ:  cpu time    0.0072: real time    0.0073
     EDDAV:  cpu time   40.1837: real time   40.4474
       DOS:  cpu time    0.0006: real time    0.0006
    CHARGE:  cpu time    0.4896: real time    0.4915
    MIXING:  cpu time    0.0038: real time    0.0038
    --------------------------------------------
      LOOP:  cpu time   40.7938: real time   41.0600

 eigenvalue-minimisations  :  4290
 total energy-change (2. order) : 0.3378192E+02  (-0.2398620E+02)
 number of electron     356.0000025 magnetization 
 augmentation part       45.9996565 magnetization 

 Broyden mixing:
  rms(total) = 0.34680E+01    rms(broyden)= 0.34680E+01
  rms(prec ) = 0.55748E+01
  weight for this iteration     100.00

 eigenvalues of (default mixing * dielectric matrix)
  average eigenvalue GAMMA=   0.5084
  1.3508  0.2746  0.2746  0.1334

 Free energy of the ion-electron system (eV)
  ---------------------------------------------------
  alpha Z        PSCENC =       529.78975023
  Ewald energy   TEWEN  =     73073.27496591
  -Hartree energ DENC   =    -92096.16091558
  -exchange      EXHF   =         0.00000000
  -V(xc)+E(xc)   XCENC  =     -3024.13524060
  PAW double counting   =     24671.83723218   -20612.31835969
  entropy T*S    EENTRO =         0.00168594
  eigenvalues    EBANDS =     -4107.41568348
  atomic energy  EATOM  =     20990.72652202
  Solvation  Ediel_sol  =         0.00000000
  ---------------------------------------------------
  free energy    TOTEN  =      -574.40004307 eV

  energy without entropy =     -574.40172901  energy(sigma->0) =     -574.40046456


--------------------------------------------------------------------------------------------------------




--------------------------------------- Iteration      1(  10)  ---------------------------------------


    POTLOK:  cpu time    0.1093: real time    0.1099
    SETDIJ:  cpu time    0.0071: real time    0.0071
     EDDAV:  cpu time   37.0333: real time   37.2825
       DOS:  cpu time    0.0013: real time    0.0013
    CHARGE:  cpu time    0.4797: real time    0.4815
    MIXING:  cpu time    0.0042: real time    0.0042
    --------------------------------------------
      LOOP:  cpu time   37.6348: real time   37.8865

 eigenvalue-minimisations  :  3900
 total energy-change (2. order) : 0.3134940E+02  (-0.1178898E+02)
 number of electron     356.0000028 magnetization 
 augmentation part       47.6219622 magnetization 

 Broyden mixing:
  rms(total) = 0.24327E+01    rms(broyden)= 0.24327E+01
  rms(prec ) = 0.30347E+01
  weight for this iteration     100.00

 eigenvalues of (default mixing * dielectric matrix)
  average eigenvalue GAMMA=   0.5319
  1.5360  0.3885  0.3885  0.2163  0.1300

 Free energy of the ion-electron system (eV)
  ---------------------------------------------------
  alpha Z        PSCENC =       529.78975023
  Ewald energy   TEWEN  =     73073.27496591
  -Hartree energ DENC   =    -92145.20111413
  -exchange      EXHF   =         0.00000000
  -V(xc)+E(xc)   XCENC  =     -3020.76396282
  PAW double counting   =     25274.15737692   -21211.15598583
  entropy T*S    EENTRO =        -0.00728788
  eigenvalues    EBANDS =     -4033.87090966
  atomic energy  EATOM  =     20990.72652202
  Solvation  Ediel_sol  =         0.00000000
  ---------------------------------------------------
  free energy    TOTEN  =      -543.05064522 eV

  energy without entropy =     -543.04335735  energy(sigma->0) =     -543.04882325


--------------------------------------------------------------------------------------------------------




--------------------------------------- Iteration      1(  11)  ---------------------------------------


    POTLOK:  cpu time    0.1081: real time    0.1086
    SETDIJ:  cpu time    0.0072: real time    0.0072
     EDDAV:  cpu time   34.3993: real time   34.6338
       DOS:  cpu time    0.0009: real time    0.0009
    CHARGE:  cpu time    0.4828: real time    0.4846
    MIXING:  cpu time    0.0044: real time    0.0044
    --------------------------------------------
      LOOP:  cpu time   35.0026: real time   35.2394

 eigenvalue-minimisations  :  3570
 total energy-change (2. order) : 0.7793053E+01  (-0.5024039E+01)
 number of electron     356.0000028 magnetization 
 augmentation part       46.6426547 magnetization 

 Broyden mixing:
  rms(total) = 0.19593E+01    rms(broyden)= 0.19593E+01
  rms(prec ) = 0.22884E+01
  weight for this iteration     100.00

 eigenvalues of (default mixing * dielectric matrix)
  average eigenvalue GAMMA=   0.5447
  1.6832  0.4942  0.4942  0.2339  0.2339  0.1289

 Free energy of the ion-electron system (eV)
  ---------------------------------------------------
  alpha Z        PSCENC =       529.78975023
  Ewald energy   TEWEN  =     73073.27496591
  -Hartree energ DENC   =    -92270.58840211
  -exchange      EXHF   =         0.00000000
  -V(xc)+E(xc)   XCENC  =     -3017.63108070
  PAW double counting   =     25882.62530862   -21815.91807594
  entropy T*S    EENTRO =        -0.00167650
  eigenvalues    EBANDS =     -3907.53490410
  atomic energy  EATOM  =     20990.72652202
  Solvation  Ediel_sol  =         0.00000000
  ---------------------------------------------------
  free energy    TOTEN  =      -535.25759256 eV

  energy without entropy =     -535.25591607  energy(sigma->0) =     -535.25717344


--------------------------------------------------------------------------------------------------------




--------------------------------------- Iteration      1(  12)  ---------------------------------------


    POTLOK:  cpu time    0.1074: real time    0.1079
    SETDIJ:  cpu time    0.0073: real time    0.0073
     EDDAV:  cpu time   37.1036: real time   37.3606
       DOS:  cpu time    0.0006: real time    0.0006
    CHARGE:  cpu time    0.4786: real time    0.4804
    MIXING:  cpu time    0.0048: real time    0.0048
    --------------------------------------------
      LOOP:  cpu time   37.7023: real time   37.9617

 eigenvalue-minimisations  :  3900
 total energy-change (2. order) : 0.4950602E+01  (-0.1397233E+01)
 number of electron     356.0000027 magnetization 
 augmentation part       48.1875534 magnetization 

 Broyden mixing:
  rms(total) = 0.13775E+01    rms(broyden)= 0.13775E+01
  rms(prec ) = 0.15928E+01
  weight for this iteration     100.00

 eigenvalues of (default mixing * dielectric matrix)
  average eigenvalue GAMMA=   0.5324
  1.7417  0.5580  0.5580  0.2650  0.2650  0.1299  0.2093

 Free energy of the ion-electron system (eV)
  ---------------------------------------------------
  alpha Z        PSCENC =       529.78975023
  Ewald energy   TEWEN  =     73073.27496591
  -Hartree energ DENC   =    -92304.30721830
  -exchange      EXHF   =         0.00000000
  -V(xc)+E(xc)   XCENC  =     -3015.53192817
  PAW double counting   =     26266.11149287   -22193.55797919
  entropy T*S    EENTRO =         0.00440967
  eigenvalues    EBANDS =     -3876.81700588
  atomic energy  EATOM  =     20990.72652202
  Solvation  Ediel_sol  =         0.00000000
  ---------------------------------------------------
  free energy    TOTEN  =      -530.30699084 eV

  energy without entropy =     -530.31140051  energy(sigma->0) =     -530.30809326


--------------------------------------------------------------------------------------------------------




--------------------------------------- Iteration      1(  13)  ---------------------------------------


    POTLOK:  cpu time    0.1056: real time    0.1061
    SETDIJ:  cpu time    0.0072: real time    0.0073
     EDDAV:  cpu time   36.0905: real time   36.3301
       DOS:  cpu time    0.0013: real time    0.0013
    CHARGE:  cpu time    0.4801: real time    0.4819
    MIXING:  cpu time    0.0050: real time    0.0050
    --------------------------------------------
      LOOP:  cpu time   36.6898: real time   36.9317

 eigenvalue-minimisations  :  3780
 total energy-change (2. order) : 0.1805102E+01  (-0.6002078E+00)
 number of electron     356.0000026 magnetization 
 augmentation part       48.8171949 magnetization 

 Broyden mixing:
  rms(total) = 0.10542E+01    rms(broyden)= 0.10542E+01
  rms(prec ) = 0.12401E+01
  weight for this iteration     100.00

 eigenvalues of (default mixing * dielectric matrix)
  average eigenvalue GAMMA=   0.5755
  1.8133  0.7750  0.7750  0.3547  0.3547  0.1295  0.2172  0.1845

 Free energy of the ion-electron system (eV)
  ---------------------------------------------------
  alpha Z        PSCENC =       529.78975023
  Ewald energy   TEWEN  =     73073.27496591
  -Hartree energ DENC   =    -92322.70282338
  -exchange      EXHF   =         0.00000000
  -V(xc)+E(xc)   XCENC  =     -3014.53273431
  PAW double counting   =     26448.86823018   -22372.59879176
  entropy T*S    EENTRO =         0.00268513
  eigenvalues    EBANDS =     -3861.32969241
  atomic energy  EATOM  =     20990.72652202
[...]
      2.027287  0.877370 12.468150            0           0           0  
     10.071711  5.794019 10.146627            0           0           0  
     10.172877  1.237767 14.894194            0           0           0  
     11.970507  5.661807 12.676598            0           0           0  
     11.957820  1.461199 17.577954            0           0           0  
      5.264659  8.605080 17.554684     0.001734   -0.000244    0.001823  
     13.575039  2.388559 18.652506    -0.028136   -0.460550    0.887184  
 
   4 f  =   11.107714 THz    69.791827 2PiTHz  370.513453 cm-1    45.937830 meV
             X         Y         Z           dx          dy          dz
      8.576308  8.296846 10.398452            0           0           0  
      8.562017  3.732671 15.115082            0           0           0  
      8.488935  6.172608 17.345732            0           0           0  
      8.516162  0.799950 12.438738            0           0           0  
     13.446268  6.123461 15.338014            0           0           0  
     13.490936  1.153156 10.447489            0           0           0  
     10.033436  3.284281 12.674110            0           0           0  
      9.999868  8.647427 17.166186            0           0           0  
      7.125241  5.815767 10.157648            0           0           0  
      7.080732  1.263335 14.952830            0           0           0  
      8.512220  3.280358 10.204496            0           0           0  
      8.546333  8.370247 14.877421            0           0           0  
     10.222632  8.067230 12.779914            0           0           0  
     10.228712  3.888320 17.332698            0           0           0  
      5.426642  8.104815 10.206391            0           0           0  
      5.434711  3.533603 15.001537            0           0           0  
      8.528427  5.754231 12.656400            0           0           0  
      8.667102  1.545235 17.209018            0           0           0  
      3.848293  7.973169 12.472590            0           0           0  
      3.923897  3.641414 17.167962            0           0           0  
      3.862180  5.661849 14.966610            0           0           0  
      3.900631  0.738911 10.000000            0           0           0  
     10.109753  6.047542 14.964561            0           0           0  
     10.191124  1.104695 10.137364            0           0           0  
      6.829455  7.994241 12.666696            0           0           0  
      6.863949  3.643947 17.331554            0           0           0  
     11.438686  6.317464 17.303152            0           0           0  
     11.667723  1.053724 12.575471            0           0           0  
     11.739193  3.338683 10.411988            0           0           0  
     11.724223  8.282542 15.232160            0           0           0  
      7.185217  3.246439 12.753898            0           0           0  
      7.246898  8.654805 17.259630            0           0           0  
      6.889838  5.983058 14.939687            0           0           0  
      6.877947  0.975598 10.086954            0           0           0  
      5.510835  5.550117 12.484188            0           0           0  
      5.373129  1.194610 17.141440            0           0           0  
      3.512495  3.500193 12.835186            0           0           0  
      3.260225  8.709499 17.308736            0           0           0  
      3.467984  5.872368 10.408681            0           0           0  
      3.358567  1.278635 15.171992            0           0           0  
     11.917712  8.216334 10.245339            0           0           0  
     11.894916  3.660525 15.082763            0           0           0  
      5.241350  3.365425 10.326787            0           0           0  
      5.196864  8.345575 15.130891            0           0           0  
      5.346477  6.250638 17.419971            0           0           0  
      5.289302  0.990642 12.608494            0           0           0  
      1.605379  5.844910 12.851215            0           0           0  
      1.494114  1.697322 17.658755            0           0           0  
     13.720378  5.671342 10.182934            0           0           0  
     13.716144  1.086217 15.091630            0           0           0  
      1.634565  8.339874 10.364530            0           0           0  
      1.567263  3.770515 15.250825            0           0           0  
     13.768315  3.161194 12.533077            0           0           0  
      0.019778  8.382000 17.269115            0           0           0  
      1.994404  3.173136 10.176661            0           0           0  
      1.854601  8.079408 14.930588            0           0           0  
     13.480506  8.379299 12.868857            0           0           0  
     13.308525  4.250318 17.766411            0           0           0  
      2.059072  6.060911 17.185747            0           0           0  
      2.027287  0.877370 12.468150            0           0           0  
     10.071711  5.794019 10.146627            0           0           0  
     10.172877  1.237767 14.894194            0           0           0  
     11.970507  5.661807 12.676598            0           0           0  
     11.957820  1.461199 17.577954            0           0           0  
      5.264659  8.605080 17.554684     0.002094    0.002858   -0.004950  
     13.575039  2.388559 18.652506     0.674078    0.646605    0.357047  
 
   5 f  =    9.517750 THz    59.801789 2PiTHz  317.477970 cm-1    39.362266 meV
             X         Y         Z           dx          dy          dz
      8.576308  8.296846 10.398452            0           0           0  
      8.562017  3.732671 15.115082            0           0           0  
      8.488935  6.172608 17.345732            0           0           0  
      8.516162  0.799950 12.438738            0           0           0  
     13.446268  6.123461 15.338014            0           0           0  
     13.490936  1.153156 10.447489            0           0           0  
     10.033436  3.284281 12.674110            0           0           0  
      9.999868  8.647427 17.166186            0           0           0  
      7.125241  5.815767 10.157648            0           0           0  
      7.080732  1.263335 14.952830            0           0           0  
      8.512220  3.280358 10.204496            0           0           0  
      8.546333  8.370247 14.877421            0           0           0  
     10.222632  8.067230 12.779914            0           0           0  
     10.228712  3.888320 17.332698            0           0           0  
      5.426642  8.104815 10.206391            0           0           0  
      5.434711  3.533603 15.001537            0           0           0  
      8.528427  5.754231 12.656400            0           0           0  
      8.667102  1.545235 17.209018            0           0           0  
      3.848293  7.973169 12.472590            0           0           0  
      3.923897  3.641414 17.167962            0           0           0  
      3.862180  5.661849 14.966610            0           0           0  
      3.900631  0.738911 10.000000            0           0           0  
     10.109753  6.047542 14.964561            0           0           0  
     10.191124  1.104695 10.137364            0           0           0  
      6.829455  7.994241 12.666696            0           0           0  
      6.863949  3.643947 17.331554            0           0           0  
     11.438686  6.317464 17.303152            0           0           0  
     11.667723  1.053724 12.575471            0           0           0  
     11.739193  3.338683 10.411988            0           0           0  
     11.724223  8.282542 15.232160            0           0           0  
      7.185217  3.246439 12.753898            0           0           0  
      7.246898  8.654805 17.259630            0           0           0  
      6.889838  5.983058 14.939687            0           0           0  
      6.877947  0.975598 10.086954            0           0           0  
      5.510835  5.550117 12.484188            0           0           0  
      5.373129  1.194610 17.141440            0           0           0  
      3.512495  3.500193 12.835186            0           0           0  
      3.260225  8.709499 17.308736            0           0           0  
      3.467984  5.872368 10.408681            0           0           0  
      3.358567  1.278635 15.171992            0           0           0  
     11.917712  8.216334 10.245339            0           0           0  
     11.894916  3.660525 15.082763            0           0           0  
      5.241350  3.365425 10.326787            0           0           0  
      5.196864  8.345575 15.130891            0           0           0  
      5.346477  6.250638 17.419971            0           0           0  
      5.289302  0.990642 12.608494            0           0           0  
      1.605379  5.844910 12.851215            0           0           0  
      1.494114  1.697322 17.658755            0           0           0  
     13.720378  5.671342 10.182934            0           0           0  
     13.716144  1.086217 15.091630            0           0           0  
      1.634565  8.339874 10.364530            0           0           0  
      1.567263  3.770515 15.250825            0           0           0  
     13.768315  3.161194 12.533077            0           0           0  
      0.019778  8.382000 17.269115            0           0           0  
      1.994404  3.173136 10.176661            0           0           0  
      1.854601  8.079408 14.930588            0           0           0  
     13.480506  8.379299 12.868857            0           0           0  
     13.308525  4.250318 17.766411            0           0           0  
      2.059072  6.060911 17.185747            0           0           0  
      2.027287  0.877370 12.468150            0           0           0  
     10.071711  5.794019 10.146627            0           0           0  
     10.172877  1.237767 14.894194            0           0           0  
     11.970507  5.661807 12.676598            0           0           0  
     11.957820  1.461199 17.577954            0           0           0  
      5.264659  8.605080 17.554684    -0.015178   -0.772088    0.635308  
     13.575039  2.388559 18.652506     0.002349    0.005173    0.001273  
 
   6 f  =    8.453201 THz    53.113026 2PiTHz  281.968412 cm-1    34.959640 meV
             X         Y         Z           dx          dy          dz
      8.576308  8.296846 10.398452            0           0           0  
      8.562017  3.732671 15.115082            0           0           0  
      8.488935  6.172608 17.345732            0           0           0  
      8.516162  0.799950 12.438738            0           0           0  
     13.446268  6.123461 15.338014            0           0           0  
     13.490936  1.153156 10.447489            0           0           0  
     10.033436  3.284281 12.674110            0           0           0  
      9.999868  8.647427 17.166186            0           0           0  
      7.125241  5.815767 10.157648            0           0           0  
      7.080732  1.263335 14.952830            0           0           0  
      8.512220  3.280358 10.204496            0           0           0  
      8.546333  8.370247 14.877421            0           0           0  
     10.222632  8.067230 12.779914            0           0           0  
     10.228712  3.888320 17.332698            0           0           0  
      5.426642  8.104815 10.206391            0           0           0  
      5.434711  3.533603 15.001537            0           0           0  
      8.528427  5.754231 12.656400            0           0           0  
      8.667102  1.545235 17.209018            0           0           0  
      3.848293  7.973169 12.472590            0           0           0  
      3.923897  3.641414 17.167962            0           0           0  
      3.862180  5.661849 14.966610            0           0           0  
      3.900631  0.738911 10.000000            0           0           0  
     10.109753  6.047542 14.964561            0           0           0  
     10.191124  1.104695 10.137364            0           0           0  
      6.829455  7.994241 12.666696            0           0           0  
      6.863949  3.643947 17.331554            0           0           0  
     11.438686  6.317464 17.303152            0           0           0  
     11.667723  1.053724 12.575471            0           0           0  
     11.739193  3.338683 10.411988            0           0           0  
     11.724223  8.282542 15.232160            0           0           0  
      7.185217  3.246439 12.753898            0           0           0  
      7.246898  8.654805 17.259630            0           0           0  
      6.889838  5.983058 14.939687            0           0           0  
      6.877947  0.975598 10.086954            0           0           0  
      5.510835  5.550117 12.484188            0           0           0  
      5.373129  1.194610 17.141440            0           0           0  
      3.512495  3.500193 12.835186            0           0           0  
      3.260225  8.709499 17.308736            0           0           0  
      3.467984  5.872368 10.408681            0           0           0  
      3.358567  1.278635 15.171992            0           0           0  
     11.917712  8.216334 10.245339            0           0           0  
     11.894916  3.660525 15.082763            0           0           0  
      5.241350  3.365425 10.326787            0           0           0  
      5.196864  8.345575 15.130891            0           0           0  
      5.346477  6.250638 17.419971            0           0           0  
      5.289302  0.990642 12.608494            0           0           0  
      1.605379  5.844910 12.851215            0           0           0  
      1.494114  1.697322 17.658755            0           0           0  
     13.720378  5.671342 10.182934            0           0           0  
     13.716144  1.086217 15.091630            0           0           0  
      1.634565  8.339874 10.364530            0           0           0  
      1.567263  3.770515 15.250825            0           0           0  
     13.768315  3.161194 12.533077            0           0           0  
      0.019778  8.382000 17.269115            0           0           0  
      1.994404  3.173136 10.176661            0           0           0  
      1.854601  8.079408 14.930588            0           0           0  
     13.480506  8.379299 12.868857            0           0           0  
     13.308525  4.250318 17.766411            0           0           0  
      2.059072  6.060911 17.185747            0           0           0  
      2.027287  0.877370 12.468150            0           0           0  
     10.071711  5.794019 10.146627            0           0           0  
     10.172877  1.237767 14.894194            0           0           0  
     11.970507  5.661807 12.676598            0           0           0  
     11.957820  1.461199 17.577954            0           0           0  
      5.264659  8.605080 17.554684     0.041214    0.634377    0.771913  
     13.575039  2.388559 18.652506    -0.001126    0.003879    0.000486  
 
 Finite differences POTIM=  1.500000000000000E-002
  LATTYP: Found a simple orthorhombic cell.
 ALAT       =     9.5644817352
 B/A-ratio  =     1.4398428730
 C/A-ratio  =     2.8922184390
  
  Lattice vectors:
  
 A1 = (   0.0000000000,  -9.5644817352,   0.0000000000)
 A2 = ( -13.7713508606,   0.0000000000,   0.0000000000)
 A3 = (   0.0000000000,   0.0000000000, -27.6625704340)


Analysis of symmetry for initial positions (statically):
=====================================================================
 Subroutine PRICEL returns:
 Original cell was already a primitive cell.
 

 Routine SETGRP: Setting up the symmetry group for a 
 simple orthorhombic supercell.


 Subroutine GETGRP returns: Found  1 space group operations
 (whereof  1 operations were pure point group operations)
 out of a pool of  8 trial point group operations.


The static configuration has the point symmetry C_1 .


Analysis of symmetry for dynamics (positions and initial velocities):
=====================================================================
 Subroutine PRICEL returns:
 Original cell was already a primitive cell.
 

 Routine SETGRP: Setting up the symmetry group for a 
 simple orthorhombic supercell.


 Subroutine GETGRP returns: Found  1 space group operations
 (whereof  1 operations were pure point group operations)
 out of a pool of  8 trial point group operations.


The dynamic configuration has the point symmetry C_1 .


Analysis of constrained symmetry for selective dynamics:
=====================================================================
 Subroutine PRICEL returns:
 Original cell was already a primitive cell.
 

 Routine SETGRP: Setting up the symmetry group for a 
 simple orthorhombic supercell.


 Subroutine GETGRP returns: Found  1 space group operations
 (whereof  1 operations were pure point group operations)
 out of a pool of  8 trial point group operations.


The constrained configuration has the point symmetry C_1 .


 Subroutine INISYM returns: Found  1 space group operations
 (whereof  1 operations are pure point group operations),
 and found     1 'primitive' translations

 
 KPOINTS: k-points                                

Automatic generation of k-mesh.
Space group operators:
 irot       det(A)        alpha          n_x          n_y          n_z        tau_x        tau_y        tau_z
    1     1.000000     0.000001     1.000000     0.000000     0.000000     0.000000     0.000000     0.000000
 
 Subroutine IBZKPT returns following result:
 ===========================================
 
 Found      5 irreducible k-points:
 
 Following reciprocal coordinates:
            Coordinates               Weight
  0.000000  0.000000  0.000000      1.000000
  0.333333  0.000000  0.000000      2.000000
  0.000000  0.333333  0.000000      2.000000
  0.333333  0.333333  0.000000      2.000000
 -0.333333  0.333333  0.000000      2.000000
 
 Following cartesian coordinates:
            Coordinates               Weight
  0.000000  0.000000  0.000000      1.000000
  0.024205  0.000000  0.000000      2.000000
  0.000000  0.034851  0.000000      2.000000
  0.024205  0.034851  0.000000      2.000000
 -0.024205  0.034851  0.000000      2.000000
 
     LOOP+:  cpu time  342.9425: real time  345.1156
    4ORBIT:  cpu time    0.0000: real time    0.0000

 total amount of memory used by VASP MPI-rank0   830476. kBytes
=======================================================================

   base      :      30000. kBytes
   nonl-proj :     654151. kBytes
   fftplans  :      11449. kBytes
   grid      :      55342. kBytes
   one-center:       1026. kBytes
   wavefun   :      78508. kBytes
 
  
  
 General timing and accounting informations for this job:
 ========================================================
  
                  Total CPU time used (sec):     6712.707
                            User time (sec):     6682.082
                          System time (sec):       30.625
                         Elapsed time (sec):     6757.614
  
                   Maximum memory used (kb):     1080072.
                   Average memory used (kb):           0.
  
                          Minor page faults:      1766937
                          Major page faults:           40
                 Voluntary context switches:        39713
