 vasp.5.4.1 05Feb16 (build Mar 19 2020 08:54:17) complex                        
  
 executed on           IFC91_ompi date 2021.10.29  23:52:55
 running on   48 total cores
 distrk:  each k-point on   48 cores,    1 groups
 distr:  one band on NCORES_PER_BAND=   1 cores,   48 groups


--------------------------------------------------------------------------------------------------------


 INCAR:
 POTCAR:    PAW_PBE Al 04Jan2001                  
 POTCAR:    PAW_PBE Nb_sv 25May2007               
 POTCAR:    PAW_PBE Ta 17Jan2003                  
 POTCAR:    PAW_PBE Ti 08Apr2002                  
 POTCAR:   PAW_PBE Zr 08Apr2002                   
 POTCAR:    PAW_PBE O 08Apr2002                   

 ----------------------------------------------------------------------------- 
|                                                                             |
|           W    W    AA    RRRRR   N    N  II  N    N   GGGG   !!!           |
|           W    W   A  A   R    R  NN   N  II  NN   N  G    G  !!!           |
|           W    W  A    A  R    R  N N  N  II  N N  N  G       !!!           |
|           W WW W  AAAAAA  RRRRR   N  N N  II  N  N N  G  GGG   !            |
|           WW  WW  A    A  R   R   N   NN  II  N   NN  G    G                |
|           W    W  A    A  R    R  N    N  II  N    N   GGGG   !!!           |
|                                                                             |
|      For optimal performance we recommend to set                            |
|        NCORE= 4 - approx SQRT( number of cores)                             |
|      NCORE specifies how many cores store one orbital (NPAR=cpu/NCORE).     |
|      This setting can  greatly improve the performance of VASP for DFT.     |
|      The default, NPAR=number of cores might be grossly inefficient         |
|      on modern multi-core architectures or massively parallel machines.     |
|      Do your own testing !!!!                                               |
|      Unfortunately you need to use the default for GW and RPA calculations. |
|      (for HF NCORE is supported but not extensively tested yet)             |
|                                                                             |
 ----------------------------------------------------------------------------- 

 POTCAR:    PAW_PBE Al 04Jan2001                  
   VRHFIN =Al: s2p1                                                             
   LEXCH  = PE                                                                  
   EATOM  =    53.5387 eV,    3.9350 Ry                                         
                                                                                
   TITEL  = PAW_PBE Al 04Jan2001                                                
   LULTRA =        F    use ultrasoft PP ?                                      
   IUNSCR =        1    unscreen: 0-lin 1-nonlin 2-no                           
   RPACOR =    1.500    partial core radius                                     
   POMASS =   26.981; ZVAL   =    3.000    mass and valenz                      
   RCORE  =    1.900    outmost cutoff radius                                   
   RWIGS  =    2.650; RWIGS  =    1.402    wigner-seitz radius (au A)           
   ENMAX  =  240.300; ENMIN  =  180.225 eV                                      
   ICORE  =        2    local potential                                         
   LCOR   =        T    correct aug charges                                     
   LPAW   =        T    paw PP                                                  
   EAUG   =  291.052                                                            
   DEXC   =    0.000                                                            
   RMAX   =    1.939    core radius for proj-oper                               
   RAUG   =    1.300    factor for augmentation sphere                          
   RDEP   =    1.966    radius for radial grids                                 
   RDEPT  =    1.856    core radius for aug-charge                              
                                                                                
   Atomic configuration                                                         
    6 entries                                                                   
     n  l   j            E        occ.                                          
     1  0  0.50     -1511.1048   2.0000                                         
     2  0  0.50      -108.1629   2.0000                                         
     2  1  1.50       -69.6402   6.0000                                         
     3  0  0.50        -7.7528   2.0000                                         
     3  1  1.50        -2.7121   1.0000                                         
     3  2  2.50        -2.7212   0.0000                                         
   Description                                                                  
     l       E           TYP  RCUT    TYP  RCUT                                 
     0     -7.7528455     23  1.900                                             
     0     -3.3096929     23  1.900                                             
     1     -2.7120682     23  1.900                                             
     1     13.6058260     23  1.900                                             
     2     -2.7211652      7  1.900                                             
  local pseudopotential read in
  partial core-charges read in
  partial kinetic energy density read in
  atomic valenz-charges read in
  non local Contribution for L=           0  read in
    real space projection operators read in
  non local Contribution for L=           0  read in
    real space projection operators read in
  non local Contribution for L=           1  read in
    real space projection operators read in
  non local Contribution for L=           1  read in
    real space projection operators read in
    PAW grid and wavefunctions read in
 
   number of l-projection  operators is LMAX  =           4
   number of lm-projection operators is LMMAX =           8
 
 POTCAR:    PAW_PBE Nb_sv 25May2007               
   VRHFIN =Nb: 4p5s4d                                                           
   LEXCH  = PE                                                                  
   EATOM  =  1555.1913 eV,  114.3033 Ry                                         
                                                                                
   TITEL  = PAW_PBE Nb_sv 25May2007                                             
   LULTRA =        F    use ultrasoft PP ?                                      
   IUNSCR =        1    unscreen: 0-lin 1-nonlin 2-no                           
   RPACOR =    1.800    partial core radius                                     
   POMASS =   92.910; ZVAL   =   13.000    mass and valenz                      
   RCORE  =    2.400    outmost cutoff radius                                   
   RWIGS  =    2.400; RWIGS  =    1.270    wigner-seitz radius (au A)           
   ENMAX  =  293.235; ENMIN  =  219.927 eV                                      
   ICORE  =        3    local potential                                         
   LCOR   =        T    correct aug charges                                     
   LPAW   =        T    paw PP                                                  
   EAUG   =  455.659                                                            
   DEXC   =    0.000                                                            
   RMAX   =    2.456    core radius for proj-oper                               
   RAUG   =    1.300    factor for augmentation sphere                          
   RDEP   =    2.451    radius for radial grids                                 
   RDEPT  =    1.956    core radius for aug-charge                              
                                                                                
   Atomic configuration                                                         
   11 entries                                                                   
     n  l   j            E        occ.                                          
     1  0  0.50    -18805.2457   2.0000                                         
     2  0  0.50     -2630.2869   2.0000                                         
     2  1  1.50     -2348.4046   6.0000                                         
     3  0  0.50      -438.8757   2.0000                                         
     3  1  1.50      -346.7588   6.0000                                         
     3  2  2.50      -196.2560  10.0000                                         
     4  0  0.50       -58.3859   2.0000                                         
     5  0  0.50        -3.9816   1.0000                                         
     4  1  1.50       -34.5141   6.0000                                         
     4  2  2.50        -3.0408   4.0000                                         
     4  3  2.50        -1.3606   0.0000                                         
   Description                                                                  
     l       E           TYP  RCUT    TYP  RCUT                                 
     0    -58.3859094     23  2.200                                             
     0     -3.9816262     23  2.200                                             
     1    -34.5140738     23  2.200                                             
     1     13.6058260     23  2.200                                             
     2     -3.0408010     23  2.200                                             
     2     -0.1283038     23  2.200                                             
     3     -1.3605826     23  2.400                                             
  local pseudopotential read in
  partial core-charges read in
  partial kinetic energy density read in
  atomic valenz-charges read in
  non local Contribution for L=           0  read in
    real space projection operators read in
  non local Contribution for L=           0  read in
    real space projection operators read in
  non local Contribution for L=           1  read in
    real space projection operators read in
  non local Contribution for L=           1  read in
    real space projection operators read in
  non local Contribution for L=           2  read in
    real space projection operators read in
  non local Contribution for L=           2  read in
    real space projection operators read in
    PAW grid and wavefunctions read in
 
   number of l-projection  operators is LMAX  =           6
   number of lm-projection operators is LMMAX =          18
 
 POTCAR:    PAW_PBE Ta 17Jan2003                  
   VRHFIN =Ta:  6s5d                                                            
   LEXCH  = PE                                                                  
   EATOM  =   130.6506 eV,    9.6025 Ry                                         
                                                                                
   TITEL  = PAW_PBE Ta 17Jan2003                                                
   LULTRA =        F    use ultrasoft PP ?                                      
   IUNSCR =        1    unscreen: 0-lin 1-nonlin 2-no                           
   RPACOR =    2.330    partial core radius                                     
   POMASS =  180.948; ZVAL   =    5.000    mass and valenz                      
   RCORE  =    2.900    outmost cutoff radius                                   
   RWIGS  =    2.840; RWIGS  =    1.503    wigner-seitz radius (au A)           
   ENMAX  =  223.667; ENMIN  =  167.750 eV                                      
   RCLOC  =    2.205    cutoff for local pot                                    
   LCOR   =        T    correct aug charges                                     
   LPAW   =        T    paw PP                                                  
   EAUG   =  332.075                                                            
   DEXC   =    0.000                                                            
   RMAX   =    2.970    core radius for proj-oper                               
   RAUG   =    1.300    factor for augmentation sphere                          
   RDEP   =    3.060    radius for radial grids                                 
   RDEPT  =    2.354    core radius for aug-charge                              
                                                                                
   Atomic configuration                                                         
   16 entries                                                                   
     n  l   j            E        occ.                                          
     1  0  0.50    -67341.2807   2.0000                                         
     2  0  0.50    -11566.9376   2.0000                                         
     2  1  1.50    -10134.1182   6.0000                                         
     3  0  0.50     -2648.5620   2.0000                                         
     3  1  1.50     -2222.6012   6.0000                                         
     3  2  2.50     -1726.3120  10.0000                                         
     4  0  0.50      -538.6961   2.0000                                         
     4  1  1.50      -399.0129   6.0000                                         
     4  2  2.50      -220.3959  10.0000                                         
     4  3  3.50       -23.0374  14.0000                                         
     5  0  0.50       -71.2901   2.0000                                         
     5  1  1.50       -37.8225   6.0000                                         
     5  2  2.50        -2.6455   4.0000                                         
     6  0  0.50        -4.9623   1.0000                                         
     6  1  1.50        -1.3606   0.0000                                         
     5  3  2.50        -1.3606   0.0000                                         
   Description                                                                  
     l       E           TYP  RCUT    TYP  RCUT                                 
     2     -2.6455043     23  2.500                                             
     2     -0.6258895     23  2.500                                             
     0     -4.9622780     23  2.500                                             
     0      4.7531321     23  2.500                                             
     1     -1.3605826     23  2.900                                             
     1     27.2116520     23  2.900                                             
  local pseudopotential read in
  partial core-charges read in
  partial kinetic energy density read in
  atomic valenz-charges read in
  non local Contribution for L=           2  read in
    real space projection operators read in
  non local Contribution for L=           2  read in
    real space projection operators read in
  non local Contribution for L=           0  read in
    real space projection operators read in
  non local Contribution for L=           0  read in
    real space projection operators read in
  non local Contribution for L=           1  read in
    real space projection operators read in
  non local Contribution for L=           1  read in
    real space projection operators read in
    PAW grid and wavefunctions read in
 
   number of l-projection  operators is LMAX  =           6
   number of lm-projection operators is LMMAX =          18
 
 POTCAR:    PAW_PBE Ti 08Apr2002                  
   VRHFIN =Ti: d3 s1                                                            
   LEXCH  = PE                                                                  
   EATOM  =    94.7928 eV,    6.9671 Ry                                         
                                                                                
   TITEL  = PAW_PBE Ti 08Apr2002                                                
   LULTRA =        F    use ultrasoft PP ?                                      
   IUNSCR =        1    unscreen: 0-lin 1-nonlin 2-no                           
   RPACOR =    2.200    partial core radius                                     
   POMASS =   47.880; ZVAL   =    4.000    mass and valenz                      
   RCORE  =    2.800    outmost cutoff radius                                   
   RWIGS  =    2.500; RWIGS  =    1.323    wigner-seitz radius (au A)           
   ENMAX  =  178.330; ENMIN  =  133.747 eV                                      
   RCLOC  =    2.215    cutoff for local pot                                    
   LCOR   =        T    correct aug charges                                     
   LPAW   =        T    paw PP                                                  
   EAUG   =  328.883                                                            
   DEXC   =    0.000                                                            
   RMAX   =    2.868    core radius for proj-oper                               
   RAUG   =    1.300    factor for augmentation sphere                          
   RDEP   =    2.885    radius for radial grids                                 
   RDEPT  =    2.320    core radius for aug-charge                              
                                                                                
   Atomic configuration                                                         
    9 entries                                                                   
     n  l   j            E        occ.                                          
     1  0  0.50     -4865.3608   2.0000                                         
     2  0  0.50      -533.1367   2.0000                                         
     2  1  1.50      -440.5031   6.0000                                         
     3  0  0.50       -59.3186   2.0000                                         
     3  1  1.50       -35.7012   6.0000                                         
     3  2  2.50        -1.9157   3.0000                                         
     4  0  0.50        -3.7291   1.0000                                         
     4  1  1.50        -4.0817   0.0000                                         
     4  3  2.50        -1.3606   0.0000                                         
   Description                                                                  
     l       E           TYP  RCUT    TYP  RCUT                                 
     2     -1.9156924     23  2.800                                             
     2     -0.4062961     23  2.800                                             
     0     -3.7290832     23  2.800                                             
     0     20.4087390     23  2.800                                             
     1     -5.4423304     23  2.800                                             
  local pseudopotential read in
  partial core-charges read in
  partial kinetic energy density read in
  atomic valenz-charges read in
  non local Contribution for L=           2  read in
    real space projection operators read in
  non local Contribution for L=           2  read in
    real space projection operators read in
  non local Contribution for L=           0  read in
    real space projection operators read in
  non local Contribution for L=           0  read in
    real space projection operators read in
  non local Contribution for L=           1  read in
    real space projection operators read in
    PAW grid and wavefunctions read in
 
   number of l-projection  operators is LMAX  =           5
   number of lm-projection operators is LMMAX =          15
 
 POTCAR:   PAW_PBE Zr 08Apr2002                   
   VRHFIN =Zr: 5s4d5p                                                           
   LEXCH  = PE                                                                  
   EATOM  =    77.8472 eV,    5.7216 Ry                                         
                                                                                
   TITEL  = PAW_PBE Zr 08Apr2002                                                
   LULTRA =        F    use ultrasoft PP ?                                      
   IUNSCR =        1    unscreen: 0-lin 1-nonlin 2-no                           
   RPACOR =    2.200    partial core radius                                     
   POMASS =   91.224; ZVAL   =    4.000    mass and valenz                      
   RCORE  =    3.000    outmost cutoff radius                                   
   RWIGS  =    3.070; RWIGS  =    1.625    wigner-seitz radius (au A)           
   ENMAX  =  154.632; ENMIN  =  115.974 eV                                      
   RCLOC  =    2.213    cutoff for local pot                                    
   LCOR   =        T    correct aug charges                                     
   LPAW   =        T    paw PP                                                  
   EAUG   =  243.217                                                            
   DEXC   =    -.082                                                            
   RMAX   =    3.708    core radius for proj-oper                               
   RAUG   =    1.300    factor for augmentation sphere                          
   RDEP   =    3.146    radius for radial grids                                 
   QCUT   =   -3.371; QGAM   =    6.742    optimization parameters              
                                                                                
   Description                                                                  
     l     E      TYP  RCUT    TYP  RCUT                                        
     2   .000     23  3.000                                                     
     2   .000     23  3.000                                                     
     0   .000     23  3.000                                                     
     0  2.000     23  3.000                                                     
     1  -.400     23  3.000                                                     
     3   .000      7   .000                                                     
  local pseudopotential read in
  partial core-charges read in
  atomic valenz-charges read in
  non local Contribution for L=           2  read in
    real space projection operators read in
  non local Contribution for L=           2  read in
    real space projection operators read in
  non local Contribution for L=           0  read in
    real space projection operators read in
  non local Contribution for L=           0  read in
    real space projection operators read in
  non local Contribution for L=           1  read in
    real space projection operators read in
    PAW grid and wavefunctions read in
 
   number of l-projection  operators is LMAX  =           5
   number of lm-projection operators is LMMAX =          15
 
 POTCAR:    PAW_PBE O 08Apr2002                   
   VRHFIN =O: s2p4                                                              
   LEXCH  = PE                                                                  
   EATOM  =   432.3788 eV,   31.7789 Ry                                         
                                                                                
   TITEL  = PAW_PBE O 08Apr2002                                                 
   LULTRA =        F    use ultrasoft PP ?                                      
   IUNSCR =        1    unscreen: 0-lin 1-nonlin 2-no                           
   RPACOR =    1.200    partial core radius                                     
   POMASS =   16.000; ZVAL   =    6.000    mass and valenz                      
   RCORE  =    1.520    outmost cutoff radius                                   
   RWIGS  =    1.550; RWIGS  =    0.820    wigner-seitz radius (au A)           
   ENMAX  =  400.000; ENMIN  =  300.000 eV                                      
   ICORE  =        2    local potential                                         
   LCOR   =        T    correct aug charges                                     
   LPAW   =        T    paw PP                                                  
   EAUG   =  605.392                                                            
   DEXC   =    0.000                                                            
   RMAX   =    1.553    core radius for proj-oper                               
   RAUG   =    1.300    factor for augmentation sphere                          
   RDEP   =    1.550    radius for radial grids                                 
   RDEPT  =    1.329    core radius for aug-charge                              
                                                                                
   Atomic configuration                                                         
    4 entries                                                                   
     n  l   j            E        occ.                                          
     1  0  0.50      -514.6923   2.0000                                         
     2  0  0.50       -23.9615   2.0000                                         
     2  1  0.50        -9.0305   4.0000                                         
     3  2  1.50        -9.5241   0.0000                                         
   Description                                                                  
     l       E           TYP  RCUT    TYP  RCUT                                 
     0    -23.9615318     23  1.200                                             
     0     -9.5240782     23  1.200                                             
     1     -9.0304911     23  1.520                                             
     1      8.1634956     23  1.520                                             
     2     -9.5240782      7  1.500                                             
  local pseudopotential read in
  partial core-charges read in
  partial kinetic energy density read in
  kinetic energy density of atom read in
  atomic valenz-charges read in
  non local Contribution for L=           0  read in
    real space projection operators read in
  non local Contribution for L=           0  read in
    real space projection operators read in
  non local Contribution for L=           1  read in
    real space projection operators read in
  non local Contribution for L=           1  read in
    real space projection operators read in
    PAW grid and wavefunctions read in
 
   number of l-projection  operators is LMAX  =           4
   number of lm-projection operators is LMMAX =           8
 

 ----------------------------------------------------------------------------- 
|                                                                             |
|  ADVICE TO THIS USER RUNNING 'VASP/VAMP'   (HEAR YOUR MASTER'S VOICE ...):  |
|                                                                             |
|      You have a (more or less) 'large supercell' and for larger cells       |
|      it might be more efficient to use real space projection opertators     |
|      So try LREAL= Auto  in the INCAR   file.                               |
|      Mind: At the moment your POTCAR file does not contain real space       |
|       projectors, and has to be modified,  BUT if you                       |
|      want to do an extremely  accurate calculation you might also keep the  |
|      reciprocal projection scheme          (i.e. LREAL=.FALSE.)             |
|                                                                             |
 ----------------------------------------------------------------------------- 

 WARNING: PSMAXN for non-local potential too small
          PSMAXN should be >   12.5490833729506       NTYP=           5
  PAW_PBE Al 04Jan2001                  :
 energy of atom  1       EATOM=  -53.5387
 kinetic energy error for atom=    0.0002 (will be added to EATOM!!)
  PAW_PBE Nb_sv 25May2007               :
 energy of atom  2       EATOM=-1555.1913
 kinetic energy error for atom=    0.0037 (will be added to EATOM!!)
  PAW_PBE Ta 17Jan2003                  :
 energy of atom  3       EATOM= -130.6506
 kinetic energy error for atom=    0.0004 (will be added to EATOM!!)
  PAW_PBE Ti 08Apr2002                  :
 energy of atom  4       EATOM=  -94.7928
 kinetic energy error for atom=    0.0001 (will be added to EATOM!!)
 PAW_PBE Zr 08Apr2002                   :
 energy of atom  5       EATOM=  -77.8472
 kinetic energy error for atom=    0.0001 (will be added to EATOM!!)
  PAW_PBE O 08Apr2002                   :
 energy of atom  6       EATOM= -432.3788
 kinetic energy error for atom=    0.0168 (will be added to EATOM!!)
 
 
 POSCAR: Al Nb Ta Ti Zr                          
  positions in direct lattice
  velocities in cartesian coordinates
 exchange correlation table for  LEXCH =        8
   RHO(1)=    0.500       N(1)  =     2000
   RHO(2)=  100.500       N(2)  =     4000
 


--------------------------------------------------------------------------------------------------------


 ion  position               nearest neighbor table
   1  0.623  0.867  0.376-  34 2.83  25 2.88  24 2.88   9 2.88  13 2.90   4 2.91  61 2.93  15 3.16
                            41 3.35  17 3.40
   2  0.624  0.391  0.546-  26 2.74  23 2.77  31 2.77  14 2.78  33 2.78   7 2.85  10 2.88  62 2.96
                            18 3.06  17 3.16   3 3.33  42 3.34
   3  0.617  0.639  0.630-  32 2.72  14 2.82   8 2.93  26 2.94  23 2.94  33 2.95  27 3.03  45 3.25
                             2 3.33
   4  0.618  0.084  0.450-  31 2.80  24 2.86  34 2.87  13 2.88   1 2.91  25 2.92   7 2.92  10 2.93
                            62 2.98  12 3.11  28 3.16  46 3.24
   5  0.979  0.639  0.551-  30 2.77  42 2.90  56 2.93  27 2.93  63 3.01  52 3.02  47 3.06  54 3.09
                            59 3.21  58 3.22  57 3.28
   6  0.980  0.121  0.378-  29 2.80  28 2.80  53 2.91  41 2.96  51 3.05  55 3.05  60 3.08  57 3.37

   7  0.729  0.343  0.458-  28 2.77  29 2.83  31 2.85   2 2.85  17 2.89  11 2.90   4 2.92  62 3.01
                            63 3.07  42 3.08
   8  0.726  0.900  0.618-  30 2.57  32 2.68  12 2.71  27 2.78  18 2.83   3 2.93  64 3.07  62 3.14

   9  0.517  0.608  0.367-  35 2.84  15 2.85  17 2.87   1 2.88  11 2.89  61 2.95  43 3.10
  10  0.514  0.136  0.540-  36 2.76  18 2.77  16 2.83   2 2.88  12 2.90   4 2.93  31 2.93  46 2.96
                            62 3.08  44 3.15
  11  0.618  0.343  0.369-  24 2.75  34 2.83  31 2.87   9 2.89   7 2.90  61 2.96  43 3.27
  12  0.621  0.875  0.536-  13 2.66  32 2.70   8 2.71  25 2.79  23 2.83  10 2.90  62 2.93  33 2.96
                             4 3.11  44 3.35
  13  0.742  0.843  0.462-  12 2.66  17 2.87   4 2.88   1 2.90  30 2.91  28 2.94  63 2.98  23 3.00
                            41 3.05  57 3.27  62 3.46
  14  0.745  0.409  0.626-  27 2.72   2 2.78  42 2.81   3 2.82  18 2.87  64 2.97  58 3.08
  15  0.394  0.847  0.369-  22 2.68  19 2.76  25 2.83  34 2.84   9 2.85  39 2.98   1 3.16  46 3.43

  16  0.389  0.370  0.546-  21 2.65  26 2.69  20 2.76  10 2.83  33 2.84  37 2.93  40 2.96  31 3.00

  17  0.619  0.602  0.458-  25 2.81  31 2.85  23 2.85  33 2.85   9 2.87  13 2.87   7 2.89  61 2.95
                            35 3.03   2 3.16   1 3.40  63 3.44
  18  0.629  0.161  0.622-  26 2.70  10 2.77  62 2.79   8 2.83  14 2.87  32 2.89   2 3.06  36 3.15
                            64 3.23
  19  0.279  0.834  0.451-  15 2.76  35 2.94  46 2.96  39 2.97  25 2.99  44 3.00  60 3.07  51 3.08
                            47 3.12  56 3.22  21 3.26
  20  0.276  0.357  0.629-  69 1.99  67 2.16  16 2.76  36 2.90  52 2.95  48 3.04  40 3.10  26 3.15
                            45 3.17  59 3.20
  21  0.282  0.599  0.536-  16 2.65  35 2.86  44 2.94  33 3.00  52 3.01  37 3.02  47 3.03  45 3.04
                            56 3.11  19 3.26  59 3.31
  22  0.283  0.077  0.361-  15 2.68  46 2.97  43 2.97  34 2.99  51 3.02  55 3.10  60 3.10
  23  0.736  0.631  0.542-  30 2.76   2 2.77  27 2.81  12 2.83  17 2.85   3 2.94  42 2.97  63 2.98
                            13 3.00
  24  0.740  0.115  0.366-  29 2.73  11 2.75  28 2.85   4 2.86   1 2.88  41 3.00
  25  0.496  0.836  0.458-  35 2.78  12 2.79  17 2.81  15 2.83   1 2.88   4 2.92  44 2.95  19 2.99
                            46 2.99  33 3.10
  26  0.504  0.379  0.625-  16 2.69  18 2.70   2 2.74  36 2.89   3 2.94  45 3.11  20 3.15
  27  0.837  0.660  0.630-  68 2.15  14 2.72   8 2.78  58 2.79  23 2.81  30 2.93   5 2.93  54 3.01
                             3 3.03
  28  0.847  0.110  0.455-  62 2.76   7 2.77   6 2.80  24 2.85  57 2.90  13 2.94  53 2.98  29 3.15
                             4 3.16  50 3.18  41 3.36
  29  0.852  0.349  0.376-  24 2.73   6 2.80   7 2.83  53 2.94  61 2.98  49 3.07  28 3.15  63 3.25

  30  0.853  0.865  0.551-   8 2.57  23 2.76   5 2.77  54 2.87  13 2.91  27 2.93  57 2.95  62 3.01
                            50 3.10
  31  0.522  0.339  0.461-   2 2.77   4 2.80  17 2.85   7 2.85  35 2.86  11 2.87  10 2.93  46 2.95
                            16 3.00  43 3.11
  32  0.531  0.893  0.623-  65 2.00   8 2.68  12 2.70   3 2.72  36 2.77  18 2.89  44 2.98  45 3.11

  33  0.499  0.621  0.541-   2 2.78  16 2.84  17 2.85  35 2.87  44 2.93   3 2.95  12 2.96  21 3.00
                            45 3.02  25 3.10
  34  0.499  0.102  0.365-  11 2.83   1 2.83  15 2.84   4 2.87  43 2.91  46 2.98  22 2.99
  35  0.400  0.580  0.451-  25 2.78   9 2.84  31 2.86  21 2.86  33 2.87  37 2.88  39 2.93  19 2.94
                            17 3.03  43 3.08
  36  0.402  0.115  0.623-  67 2.04  65 2.19  10 2.76  32 2.77  26 2.89  20 2.90  38 2.93  40 2.95
                            18 3.15  44 3.16
  37  0.255  0.366  0.464-  35 2.88  16 2.93  47 3.02  21 3.02  60 3.04  43 3.05  55 3.08  46 3.08
                            52 3.19  40 3.21  39 3.39
  38  0.241  0.915  0.626-  65 2.04  67 2.12  56 2.82  36 2.93  44 2.94  40 3.02  59 3.04  48 3.11
                            45 3.19  54 3.39
  39  0.252  0.614  0.376-  35 2.93  19 2.97  15 2.98  47 3.07  43 3.07  51 3.07  55 3.08  37 3.39
                            49 3.53
  40  0.249  0.135  0.548-  67 2.46  36 2.95  16 2.96  38 3.02  60 3.07  44 3.08  52 3.09  20 3.10
                            46 3.18  56 3.19  37 3.21  48 3.24  50 3.51
  41  0.865  0.859  0.370-   6 2.96  24 3.00  61 3.05  13 3.05  57 3.06  49 3.12   1 3.35  28 3.36
                            51 3.49  63 3.53
  42  0.866  0.384  0.545-  14 2.81   5 2.90  23 2.97  62 3.01   7 3.08  58 3.10  63 3.11  50 3.13
                            53 3.17   2 3.34  64 3.37  52 3.51
  43  0.381  0.352  0.373-  34 2.91  22 2.97  37 3.05  39 3.07  35 3.08   9 3.10  31 3.11  55 3.26
                            11 3.27  46 3.29
  44  0.379  0.872  0.546-  65 2.42  33 2.93  21 2.94  38 2.94  25 2.95  32 2.98  19 3.00  40 3.08
                            10 3.15  36 3.16  45 3.19  12 3.35  46 3.35  56 3.36
  45  0.382  0.651  0.633-  69 2.13  65 2.28  33 3.02  21 3.04  32 3.11  26 3.11  20 3.17  44 3.19
                            38 3.19   3 3.25  59 3.30
  46  0.384  0.104  0.456-  31 2.95  10 2.96  19 2.96  22 2.97  34 2.98  25 2.99  37 3.08  40 3.18
                             4 3.24  60 3.27  43 3.29  44 3.35  15 3.43
  47  0.117  0.611  0.465-  37 3.02  21 3.03   5 3.06  39 3.07  19 3.12  56 3.12  53 3.14  49 3.15
                            57 3.17  52 3.27  63 3.42  51 3.52  55 3.80
  48  0.099  0.167  0.638-  66 2.08  67 2.19  50 3.04  20 3.04  38 3.11  54 3.15  52 3.16  58 3.18
                            40 3.24  64 3.28
  49  0.996  0.593  0.368-  63 3.05  29 3.07  41 3.12  47 3.15  51 3.16  55 3.23  53 3.44  39 3.53
                            61 3.65  57 3.82
  50  0.995  0.115  0.543-  48 3.04  30 3.10  42 3.13  57 3.15  64 3.16  28 3.18  56 3.22  52 3.23
                            53 3.23  54 3.25  60 3.31  40 3.51  62 3.55
  51  0.119  0.872  0.375-  60 3.00  22 3.02   6 3.05  39 3.07  19 3.08  57 3.16  49 3.16  41 3.49
                            47 3.52
  52  0.120  0.398  0.557-  20 2.95  21 3.01   5 3.02  59 3.09  40 3.09  48 3.16  37 3.19  58 3.23
                            50 3.23  47 3.27  53 3.38  42 3.51
  53  1.000  0.331  0.453-   6 2.91  29 2.94  28 2.98  60 3.06  63 3.08  55 3.09  47 3.14  42 3.17
                            50 3.23  52 3.38  49 3.44
  54  0.996  0.875  0.627-  68 2.20  30 2.87  27 3.01  56 3.03   5 3.09  59 3.09  48 3.15  64 3.22
                            50 3.25  38 3.39
  55  0.145  0.332  0.368-   6 3.05  37 3.08  39 3.08  53 3.09  22 3.10  49 3.23  60 3.24  43 3.26
                            47 3.80
  56  0.135  0.845  0.543-  38 2.82   5 2.93  54 3.03  57 3.05  21 3.11  47 3.12  40 3.19  19 3.22
                            50 3.22  59 3.24  44 3.36  60 3.47
  57  0.979  0.876  0.465-  28 2.90  30 2.95  56 3.05  41 3.06  63 3.11  60 3.13  50 3.15  51 3.16
                            47 3.17  13 3.27   5 3.28   6 3.37  49 3.82
  58  0.965  0.438  0.644-  66 2.09  68 2.19  27 2.79  59 3.08  14 3.08  42 3.10  64 3.11  48 3.18
                             5 3.22  52 3.23
  59  0.142  0.631  0.633-  69 2.13  68 2.30  38 3.04  58 3.08  52 3.09  54 3.09  20 3.20   5 3.21
                            56 3.24  45 3.30  21 3.31
  60  0.147  0.092  0.451-  51 3.00  37 3.04  53 3.06  19 3.07  40 3.07   6 3.08  22 3.10  57 3.13
                            55 3.24  46 3.27  50 3.31  56 3.47
  61  0.731  0.606  0.367-   1 2.93  17 2.95   9 2.95  11 2.96  29 2.98  41 3.05  63 3.17  49 3.65

  62  0.738  0.131  0.538-  28 2.76  18 2.79  12 2.93   2 2.96   4 2.98   7 3.01  42 3.01  30 3.01
                            10 3.08   8 3.14  64 3.19  13 3.46  50 3.55
  63  0.869  0.592  0.458-  13 2.98  23 2.98   5 3.01  49 3.05   7 3.07  53 3.08  42 3.11  57 3.11
                            61 3.17  29 3.25  47 3.42  17 3.44  41 3.53
  64  0.862  0.149  0.635-  66 2.14  14 2.97   8 3.07  58 3.11  50 3.16  62 3.19  54 3.22  18 3.23
                            48 3.28  42 3.37
  65  0.388  0.890  0.634-  32 2.00  38 2.04  36 2.19  45 2.28  44 2.42
  66  0.979  0.240  0.675-  48 2.08  58 2.09  64 2.14
  67  0.257  0.134  0.637-  36 2.04  38 2.12  20 2.16  48 2.19  40 2.46
  68  0.983  0.662  0.656-  27 2.15  58 2.19  54 2.20  59 2.30
  69  0.266  0.536  0.665-  20 1.99  59 2.13  45 2.13
 
  LATTYP: Found a simple orthorhombic cell.
 ALAT       =     9.5644817352
 B/A-ratio  =     1.4398428730
 C/A-ratio  =     2.8922184390
  
  Lattice vectors:
  
 A1 = (   0.0000000000,  -9.5644817352,   0.0000000000)
 A2 = ( -13.7713508606,   0.0000000000,   0.0000000000)
 A3 = (   0.0000000000,   0.0000000000, -27.6625704340)


Analysis of symmetry for initial positions (statically):
=====================================================================
 Subroutine PRICEL returns:
 Original cell was already a primitive cell.
 

 Routine SETGRP: Setting up the symmetry group for a 
 simple orthorhombic supercell.


 Subroutine GETGRP returns: Found  1 space group operations
 (whereof  1 operations were pure point group operations)
 out of a pool of  8 trial point group operations.


The static configuration has the point symmetry C_1 .


Analysis of symmetry for dynamics (positions and initial velocities):
=====================================================================
 Subroutine PRICEL returns:
 Original cell was already a primitive cell.
 

 Routine SETGRP: Setting up the symmetry group for a 
 simple orthorhombic supercell.


 Subroutine GETGRP returns: Found  1 space group operations
 (whereof  1 operations were pure point group operations)
 out of a pool of  8 trial point group operations.


The dynamic configuration has the point symmetry C_1 .


Analysis of constrained symmetry for selective dynamics:
=====================================================================
 Subroutine PRICEL returns:
 Original cell was already a primitive cell.
 

 Routine SETGRP: Setting up the symmetry group for a 
 simple orthorhombic supercell.


 Subroutine GETGRP returns: Found  1 space group operations
 (whereof  1 operations were pure point group operations)
 out of a pool of  8 trial point group operations.


The constrained configuration has the point symmetry C_1 .


 Subroutine INISYM returns: Found  1 space group operations
 (whereof  1 operations are pure point group operations),
 and found     1 'primitive' translations

 
 
 KPOINTS: k-points                                

Automatic generation of k-mesh.
Space group operators:
 irot       det(A)        alpha          n_x          n_y          n_z        tau_x        tau_y        tau_z
    1     1.000000     0.000000     1.000000     0.000000     0.000000     0.000000     0.000000     0.000000
 
 Subroutine IBZKPT returns following result:
 ===========================================
 
 Found      5 irreducible k-points:
 
 Following reciprocal coordinates:
            Coordinates               Weight
  0.000000  0.000000  0.000000      1.000000
  0.333333  0.000000  0.000000      2.000000
  0.000000  0.333333  0.000000      2.000000
  0.333333  0.333333  0.000000      2.000000
 -0.333333  0.333333  0.000000      2.000000
 
 Following cartesian coordinates:
            Coordinates               Weight
  0.000000  0.000000  0.000000      1.000000
  0.024205  0.000000  0.000000      2.000000
  0.000000  0.034851  0.000000      2.000000
  0.024205  0.034851  0.000000      2.000000
 -0.024205  0.034851  0.000000      2.000000
 
 
 Subroutine IBZKPT_HF returns following result:
 ==============================================
 
 Found      9 k-points in 1st BZ
 the following      9 k-points will be used (e.g. in the exchange kernel)
 Following reciprocal coordinates:   # in IRBZ
  0.000000  0.000000  0.000000    0.11111111   1 t-inv F
  0.333333  0.000000  0.000000    0.11111111   2 t-inv F
  0.000000  0.333333  0.000000    0.11111111   3 t-inv F
  0.333333  0.333333  0.000000    0.11111111   4 t-inv F
 -0.333333  0.333333  0.000000    0.11111111   5 t-inv F
 -0.333333  0.000000  0.000000    0.11111111   2 t-inv T
  0.000000 -0.333333  0.000000    0.11111111   3 t-inv T
 -0.333333 -0.333333  0.000000    0.11111111   4 t-inv T
  0.333333 -0.333333  0.000000    0.11111111   5 t-inv T


--------------------------------------------------------------------------------------------------------




 Dimension of arrays:
   k-points           NKPTS =      5   k-points in BZ     NKDIM =      5   number of bands    NBANDS=    240
   number of dos      NEDOS =    301   number of ions     NIONS =     69
   non local maximal  LDIM  =      6   non local SUM 2l+1 LMDIM =     18
   total plane-waves  NPLWV = 846720
   max r-space proj   IRMAX =      1   max aug-charges    IRDMAX=  25433
   dimension x,y,z NGX =    84 NGY =   60 NGZ =  168
   dimension x,y,z NGXF=   168 NGYF=  120 NGZF=  336
   support grid    NGXF=   168 NGYF=  120 NGZF=  336
   ions per type =               6  10   4  18  26   5
 NGX,Y,Z   is equivalent  to a cutoff of  10.14, 10.43, 10.10 a.u.
 NGXF,Y,Z  is equivalent  to a cutoff of  20.28, 20.86, 20.19 a.u.


 I would recommend the setting:
   dimension x,y,z NGX =    83 NGY =   57 NGZ =  166
 SYSTEM =  (110) surface DM                        
 POSCAR =  Al Nb Ta Ti Zr                          

 Startparameter for this run:
   NWRITE =      2    write-flag & timer
   PREC   = normal    normal or accurate (medium, high low for compatibility)
   ISTART =      0    job   : 0-new  1-cont  2-samecut
   ICHARG =      2    charge: 1-file 2-atom 10-const
   ISPIN  =      1    spin polarized calculation?
   LNONCOLLINEAR =      F non collinear calculations
   LSORBIT =      F    spin-orbit coupling
   INIWAV =      1    electr: 0-lowe 1-rand  2-diag
   LASPH  =      F    aspherical Exc in radial PAW
   METAGGA=      F    non-selfconsistent MetaGGA calc.

 Electronic Relaxation 1
   ENCUT  =  600.0 eV  44.10 Ry    6.64 a.u.  27.50 19.10 55.25*2*pi/ulx,y,z
   ENINI  =  600.0     initial cutoff
   ENAUG  =  605.4 eV  augmentation charge cutoff
   NELM   =     60;   NELMIN=  2; NELMDL= -5     # of ELM steps 
   EDIFF  = 0.1E-05   stopping-criterion for ELM
   LREAL  =      F    real-space projection
   NLSPLINE    = F    spline interpolate recip. space projectors
   LCOMPAT=      F    compatible to vasp.4.4
   GGA_COMPAT  = T    GGA compatible to vasp.4.4-vasp.4.6
   LMAXPAW     = -100 max onsite density
   LMAXMIX     =    2 max onsite mixed and CHGCAR
   VOSKOWN=      0    Vosko Wilk Nusair interpolation
   ROPT   =    0.00000   0.00000   0.00000   0.00000
   ROPT   =    0.00000   0.00000
 Ionic relaxation
   EDIFFG = 0.1E-04   stopping-criterion for IOM
   NSW    =    800    number of steps for IOM
   NBLOCK =      1;   KBLOCK =    100    inner block; outer block 
   IBRION =      5    ionic relax: 0-MD 1-quasi-New 2-CG
   NFREE  =      2    steps in history (QN), initial steepest desc. (CG)
   ISIF   =      2    stress and relaxation
   IWAVPR =     11    prediction:  0-non 1-charg 2-wave 3-comb
   ISYM   =      2    0-nonsym 1-usesym 2-fastsym
   LCORR  =      T    Harris-Foulkes like correction to forces

   POTIM  = 0.0150    time-step for ionic-motion
   TEIN   =    0.0    initial temperature
   TEBEG  =    0.0;   TEEND  =   0.0 temperature during run
   SMASS  =  -3.00    Nose mass-parameter (am)
   estimated Nose-frequenzy (Omega)   =  0.10E-29 period in steps =****** mass=  -0.433E-26a.u.
   SCALEE = 1.0000    scale energy and forces
   NPACO  =    256;   APACO  = 16.0  distance and # of slots for P.C.
   PSTRESS=    0.0 pullay stress

  Mass of Ions in am
   POMASS =  26.98 92.91180.95 47.88 91.22 16.00
  Ionic Valenz
   ZVAL   =   3.00 13.00  5.00  4.00  4.00  6.00
  Atomic Wigner-Seitz radii
   RWIGS  =  -1.00 -1.00 -1.00 -1.00 -1.00 -1.00
  virtual crystal weights 
   VCA    =   1.00  1.00  1.00  1.00  1.00  1.00
   NELECT =     374.0000    total number of electrons
   NUPDOWN=      -1.0000    fix difference up-down

 DOS related values:
   EMIN   =  10.00;   EMAX   =-10.00  energy-range for DOS
   EFERMI =   0.00
   ISMEAR =     2;   SIGMA  =   0.10  broadening in eV -4-tet -1-fermi 0-gaus

 Electronic relaxation 2 (details)
   IALGO  =     38    algorithm
   LDIAG  =      T    sub-space diagonalisation (order eigenvalues)
   LSUBROT=      F    optimize rotation matrix (better conditioning)
   TURBO    =      0    0=normal 1=particle mesh
   IRESTART =      0    0=no restart 2=restart with 2 vectors
   NREBOOT  =      0    no. of reboots
   NMIN     =      0    reboot dimension
   EREF     =   0.00    reference energy to select bands
   IMIX   =      4    mixing-type and parameters
     AMIX     =   0.40;   BMIX     =  1.00
     AMIX_MAG =   1.60;   BMIX_MAG =  1.00
     AMIN     =   0.10
     WC   =   100.;   INIMIX=   1;  MIXPRE=   1;  MAXMIX=  60

 Intra band minimization:
   WEIMIN = 0.0010     energy-eigenvalue tresh-hold
   EBREAK =  0.10E-08  absolut break condition
   DEPER  =   0.30     relativ break condition  

   TIME   =   0.40     timestep for ELM

  volume/ion in A,a.u.               =      52.81       356.35
  Fermi-wavevector in a.u.,A,eV,Ry     =   0.766517  1.448507  7.994083  0.587548
  Thomas-Fermi vector in A             =   1.866873
 
 Write flags
   LWAVE  =      F    write WAVECAR
   LCHARG =      F    write CHGCAR
   LVTOT  =      F    write LOCPOT, total local potential
   LVHAR  =      F    write LOCPOT, Hartree potential only
   LELF   =      F    write electronic localiz. function (ELF)
   LORBIT =      0    0 simple, 1 ext, 2 COOP (PROOUT)


 Dipole corrections
   LMONO  =      F    monopole corrections only (constant potential shift)
   LDIPOL =      F    correct potential (dipole corrections)
   IDIPOL =      0    1-x, 2-y, 3-z, 4-all directions 
   EPSILON=  1.0000000 bulk dielectric constant

 Exchange correlation treatment:
   GGA     =    --    GGA type
   LEXCH   =     8    internal setting for exchange type
   VOSKOWN=      0    Vosko Wilk Nusair interpolation
   LHFCALC =     F    Hartree Fock is set to
   LHFONE  =     F    Hartree Fock one center treatment
   AEXX    =    0.0000 exact exchange contribution

 Linear response parameters
   LEPSILON=     F    determine dielectric tensor
   LRPA    =     F    only Hartree local field effects (RPA)
   LNABLA  =     F    use nabla operator in PAW spheres
   LVEL    =     F    velocity operator in full k-point grid
   LINTERFAST=   F  fast interpolation
   KINTER  =     0    interpolate to denser k-point grid
   CSHIFT  =0.1000    complex shift for real part using Kramers Kronig
   OMEGAMAX=  -1.0    maximum frequency
   DEG_THRESHOLD= 0.2000000E-02 threshold for treating states as degnerate
   RTIME   =    0.100 relaxation time in fs

 Orbital magnetization related:
   ORBITALMAG=     F  switch on orbital magnetization
   LCHIMAG   =     F  perturbation theory with respect to B field
   DQ        =  0.001000  dq finite difference perturbation B field



--------------------------------------------------------------------------------------------------------


 finite differences
   using selective dynamics as specified on POSCAR
 charge density and potential will be updated during run
 non-spin polarized calculation
 Variant of blocked Davidson
 Davidson routine will perform the subspace rotation
 perform sub-space diagonalisation
    after iterative eigenvector-optimisation
 modified Broyden-mixing scheme, WC =      100.0
 initial mixing is a Kerker type mixing with AMIX =  0.4000 and BMIX =      1.0000
 Hartree-type preconditioning will be used
 using additional bands           53
 reciprocal scheme for non local part
 use partial core corrections
 calculate Harris-corrections to forces 
   (improved forces if not selfconsistent)
 use gradient corrections 
 use of overlap-Matrix (Vanderbilt PP)
 Methfessel and Paxton  Order N= 2 SIGMA  =   0.10


--------------------------------------------------------------------------------------------------------


  energy-cutoff  :      600.00
  volume of cell :     3643.60
      direct lattice vectors                 reciprocal lattice vectors
    13.771350861  0.000000000  0.000000000     0.072614518  0.000000000  0.000000000
     0.000000000  9.564481735  0.000000000     0.000000000  0.104553496  0.000000000
     0.000000000  0.000000000 27.662570434     0.000000000  0.000000000  0.036149931

  length of vectors
    13.771350861  9.564481735 27.662570434     0.072614518  0.104553496  0.036149931


 
 k-points in units of 2pi/SCALE and weight: k-points                                
   0.00000000  0.00000000  0.00000000       0.111
   0.02420484  0.00000000  0.00000000       0.222
   0.00000000  0.03485117  0.00000000       0.222
   0.02420484  0.03485117  0.00000000       0.222
  -0.02420484  0.03485117  0.00000000       0.222
 
 k-points in reciprocal lattice and weights: k-points                                
   0.00000000  0.00000000  0.00000000       0.111
   0.33333333  0.00000000  0.00000000       0.222
   0.00000000  0.33333333  0.00000000       0.222
   0.33333333  0.33333333  0.00000000       0.222
  -0.33333333  0.33333333  0.00000000       0.222
 
 position of ions in fractional coordinates (direct lattice) 
   0.62276447  0.86746430  0.37590333
   0.62391604  0.39142793  0.54558074
   0.61734264  0.63854756  0.63045423
   0.61839700  0.08363760  0.44965952
   0.97869173  0.63949062  0.55088417
   0.97963780  0.12056648  0.37767599
   0.72857308  0.34338307  0.45816820
   0.72563142  0.90016748  0.61843698
   0.51739597  0.60805875  0.36719826
   0.51410373  0.13593741  0.54025385
   0.61811078  0.34297293  0.36889183
   0.62073179  0.87523588  0.53607239
   0.74231148  0.84345710  0.46199300
   0.74517370  0.40899175  0.62575394
   0.39405298  0.84738672  0.36896032
   0.38871077  0.37007330  0.54637964
   0.61928761  0.60162497  0.45752798
   0.62853218  0.16077169  0.62208970
   0.27944195  0.83362269  0.45088327
   0.27572154  0.35690230  0.62872911
   0.28242345  0.59930310  0.53640019
   0.28324246  0.07725573  0.36149931
   0.73612146  0.63134390  0.54202730
   0.74002355  0.11549973  0.36646499
   0.49591756  0.83582580  0.45790018
   0.50402353  0.37895193  0.62469856
   0.83688784  0.66026953  0.62975390
   0.84724605  0.11017048  0.45460239
   0.85243583  0.34907103  0.37639265
   0.85269642  0.86516639  0.55130008
   0.52175105  0.33942658  0.46105252
   0.53127460  0.89301173  0.62257000
   0.49942982  0.62054928  0.54143587
   0.49943882  0.10200214  0.36464270
   0.40016663  0.58028412  0.45130253
   0.40208166  0.11507038  0.62273402
   0.25505811  0.36595738  0.46399110
   0.24084097  0.91528546  0.62640301
   0.25182599  0.61397660  0.37627308
   0.24919882  0.13498514  0.54828196
   0.86539888  0.85904646  0.37036829
   0.86631122  0.38433265  0.54459614
   0.38059813  0.35186696  0.37331264
   0.37855099  0.87176212  0.54643151
   0.38182198  0.65137347  0.63277996
   0.38408008  0.10357511  0.45579618
   0.11657381  0.61110574  0.46457054
   0.09941352  0.16681034  0.63813530
   0.99629861  0.59295863  0.36811234
   0.99492045  0.11477501  0.54310297
   0.11869311  0.87196302  0.37467704
   0.11989104  0.39799830  0.55699112
   0.99977952  0.33051389  0.45306987
   0.99598440  0.87514348  0.62658935
   0.14482272  0.33176249  0.36788561
   0.13520406  0.84500219  0.54255663
   0.97888047  0.87608504  0.46520830
   0.96529906  0.43759034  0.64363046
   0.14248471  0.63127646  0.63324254
   0.14721048  0.09173214  0.45072276
   0.73135245  0.60578495  0.36679988
   0.73789571  0.13051007  0.53803033
   0.86923259  0.59196168  0.45825814
   0.86168513  0.14910201  0.63531157
   0.38751058  0.88957548  0.63357487
   0.97875745  0.24017526  0.67546643
   0.25705405  0.13389943  0.63715585
   0.98348395  0.66181477  0.65606257
   0.26649356  0.53562042  0.66499812
 
 position of ions in cartesian coordinates  (Angst):
   8.57630799  8.29684649 10.39845223
   8.59216666  3.74380524 15.09216556
   8.50164215  6.10737651 17.43998461
   8.51616202  0.79995025 12.43873821
  13.47790722  6.11639636 15.23887225
  13.49093588  1.15315590 10.44748880
  10.03343557  3.28428114 12.67411000
   9.99292484  8.60963540 17.10755658
   7.12524148  5.81576681 10.15764776
   7.07990281  1.30017088 14.94481018
   8.51222037  3.28035836 10.20449636
   8.54831531  8.37117755 14.82914031
  10.22263181  8.06723005 12.77991378
  10.26204848  3.91179410 17.30996240
   5.42664188  8.10481479 10.20639088
   5.35307237  3.53955932 15.11426528
   8.52842696  5.75423100 12.65640004
   8.65573721  1.53769792 17.20860021
   3.84829318  7.97316903 12.47259035
   3.79705811  3.41358554 17.39226319
   3.88935239  5.73202358 14.83820802
   3.90063135  0.73891098 10.00000000
  10.13738688  6.03847721 14.99386830
  10.19112400  1.10469510 10.13736353
   6.82945470  7.99424061 12.66669595
   6.94108493  3.62447883 17.28076789
  11.52507610  6.31513582 17.42061170
  11.66772263  1.05372358 12.57547056
  11.73919286  3.33868345 10.41198829
  11.74278163  8.27486810 15.25037719
   7.18521672  3.24643930 12.75389771
   7.31636886  8.54119441 17.22188642
   6.87782327  5.93523229 14.97750794
   6.87794726  0.97559764 10.08695433
   5.51083508  5.55011685 12.48418803
   5.53720768  1.10058858 17.22642378
   3.51249472  3.50019267 12.83518635
   3.31670553  8.75423105 17.32791732
   3.46798404  5.87236796 10.40868071
   3.43180441  1.29106289 15.16688827
  11.91771166  8.21633417 10.24533883
  11.93027579  3.67594260 15.06492915
   5.24135036  3.36542512 10.32678719
   5.21315852  8.33795289 15.11570026
   5.25820439  6.23004963 17.50432032
   5.28930157  0.99064225 12.60849381
   1.60537885  5.84490969 12.85121538
   1.36905849  1.59545448 17.65246257
  13.72037774  5.67134198 10.18293350
  13.70139866  1.09776344 15.02362415
   1.63456451  8.33987442 10.36453009
   1.65106160  3.80664745 15.40780621
  13.76831459  3.16119411 12.53307716
  13.71605057  8.37029387 17.33307203
   1.99440444  3.17313630 10.17666150
   1.86194254  8.08200805 15.00851110
  13.48050634  8.37929939 12.86885734
  13.29347203  4.18532485 17.80447294
   1.96220689  6.03783221 17.51711627
   2.02728715  0.87737042 12.46815015
  10.07171117  5.79401911 10.14662739
  10.16182066  1.24826120 14.88330177
  11.97050705  5.66180669 12.67659812
  11.86656821  1.42608344 17.57435096
   5.33654423  8.50832842 17.52630944
  13.47881227  2.29715193 18.68513774
   3.53998150  1.28067867 17.62536852
  13.54390256  6.32991527 18.14837695
   3.66997635  5.12293174 18.39555726
 


--------------------------------------------------------------------------------------------------------


 k-point  1 :   0.0000 0.0000 0.0000  plane waves:  121663
 k-point  2 :   0.3333 0.0000 0.0000  plane waves:  121577
 k-point  3 :   0.0000 0.3333 0.0000  plane waves:  121622
 k-point  4 :   0.3333 0.3333 0.0000  plane waves:  121647
 k-point  5 :  -0.3333 0.3333 0.0000  plane waves:  121647

 maximum and minimum number of plane-waves per node :    121663   121577

 maximum number of plane-waves:    121663
 maximum index in each direction: 
   IXMAX=   27   IYMAX=   19   IZMAX=   55
   IXMIN=  -27   IYMIN=  -19   IZMIN=  -55

 WARNING: aliasing errors must be expected set NGX to 110 to avoid them
 WARNING: aliasing errors must be expected set NGY to  78 to avoid them
 WARNING: aliasing errors must be expected set NGZ to 222 to avoid them
 aliasing errors are usually negligible using standard VASP settings
 and one can safely disregard these warnings

 serial   3D FFT for wavefunctions
 parallel 3D FFT for charge:
    minimum data exchange during FFTs selected (reduces bandwidth)


 total amount of memory used by VASP on root node   797068. kBytes
========================================================================

   base      :      30000. kBytes
   nonl-proj :     659992. kBytes
   fftplans  :       8717. kBytes
   grid      :      48211. kBytes
   one-center:       1073. kBytes
   wavefun   :      49075. kBytes
 
     INWAV:  cpu time    0.0000: real time    0.0000
 Broyden mixing: mesh for mixing (old mesh)
   NGX = 55   NGY = 39   NGZ =111
  (NGX  =168   NGY  =120   NGZ  =336)
  gives a total of 238095 points

 initial charge density was supplied:
 charge density of overlapping atoms calculated
 number of electron     374.0000000 magnetization 
 keeping initial charge density in first step


--------------------------------------------------------------------------------------------------------


 Maximum index for augmentation-charges         1033 (set IRDMAX)


--------------------------------------------------------------------------------------------------------


 First call to EWALD:  gamma=   0.115
 Maximum number of real-space cells 3x 4x 2
 Maximum number of reciprocal cells 3x 2x 5

 FEWALD executed in parallel
    FEWALD:  cpu time    0.0029: real time    0.0030


----------------------------------------- Iteration    1(   1)  ---------------------------------------


    POTLOK:  cpu time    0.1450: real time    0.1499
    SETDIJ:  cpu time    0.0145: real time    0.0172
     EDDAV:  cpu time  101.8262: real time  101.8605
       DOS:  cpu time    0.0036: real time    0.0054
    --------------------------------------------
      LOOP:  cpu time  101.9916: real time  102.1090

 eigenvalue-minimisations  :  2640
 total energy-change (2. order) : 0.3983900E+04  (-0.1398422E+05)
 number of electron     374.0000000 magnetization 
 augmentation part      374.0000000 magnetization 

 Free energy of the ion-electron system (eV)
  ---------------------------------------------------
  alpha Z        PSCENC =       563.70841644
  Ewald energy   TEWEN  =     77816.60930394
  -Hartree energ DENC   =    -97818.42784350
  -exchange      EXHF   =         0.00000000
  -V(xc)+E(xc)   XCENC  =     -2949.54820818
  PAW double counting   =     21172.02850762   -17089.78808170
  entropy T*S    EENTRO =         0.00575287
  eigenvalues    EBANDS =         1.49972782
  atomic energy  EATOM  =     22287.81246318
  Solvation  Ediel_sol  =         0.00000000
  ---------------------------------------------------
  free energy    TOTEN  =      3983.90003850 eV

  energy without entropy =     3983.89428563  energy(sigma->0) =     3983.89860028


--------------------------------------------------------------------------------------------------------




----------------------------------------- Iteration    1(   2)  ---------------------------------------


     EDDAV:  cpu time  113.4916: real time  113.4921
       DOS:  cpu time    0.0004: real time    0.0004
    --------------------------------------------
      LOOP:  cpu time  113.4939: real time  113.4959

 eigenvalue-minimisations  :  3024
 total energy-change (2. order) :-0.3781877E+04  (-0.3634711E+04)
 number of electron     374.0000000 magnetization 
 augmentation part      374.0000000 magnetization 

 Free energy of the ion-electron system (eV)
  ---------------------------------------------------
  alpha Z        PSCENC =       563.70841644
  Ewald energy   TEWEN  =     77816.60930394
  -Hartree energ DENC   =    -97818.42784350
  -exchange      EXHF   =         0.00000000
  -V(xc)+E(xc)   XCENC  =     -2949.54820818
  PAW double counting   =     21172.02850762   -17089.78808170
  entropy T*S    EENTRO =         0.01187220
  eigenvalues    EBANDS =     -3780.38327639
  atomic energy  EATOM  =     22287.81246318
  Solvation  Ediel_sol  =         0.00000000
  ---------------------------------------------------
  free energy    TOTEN  =       202.02315361 eV

  energy without entropy =      202.01128141  energy(sigma->0) =      202.02018556


--------------------------------------------------------------------------------------------------------




----------------------------------------- Iteration    1(   3)  ---------------------------------------


     EDDAV:  cpu time  153.0247: real time  153.0252
       DOS:  cpu time    0.0004: real time    0.0004
    --------------------------------------------
      LOOP:  cpu time  153.0270: real time  153.0291

 eigenvalue-minimisations  :  4320
 total energy-change (2. order) :-0.7400633E+03  (-0.7115126E+03)
 number of electron     374.0000000 magnetization 
 augmentation part      374.0000000 magnetization 

 Free energy of the ion-electron system (eV)
  ---------------------------------------------------
  alpha Z        PSCENC =       563.70841644
  Ewald energy   TEWEN  =     77816.60930394
  -Hartree energ DENC   =    -97818.42784350
  -exchange      EXHF   =         0.00000000
  -V(xc)+E(xc)   XCENC  =     -2949.54820818
  PAW double counting   =     21172.02850762   -17089.78808170
  entropy T*S    EENTRO =         0.00657158
  eigenvalues    EBANDS =     -4520.44127976
  atomic energy  EATOM  =     22287.81246318
  Solvation  Ediel_sol  =         0.00000000
  ---------------------------------------------------
  free energy    TOTEN  =      -538.04015038 eV

  energy without entropy =     -538.04672196  energy(sigma->0) =     -538.04179327


--------------------------------------------------------------------------------------------------------




----------------------------------------- Iteration    1(   4)  ---------------------------------------


     EDDAV:  cpu time  150.0461: real time  150.0514
       DOS:  cpu time    0.0004: real time    0.0004
    --------------------------------------------
      LOOP:  cpu time  150.0484: real time  150.0554

 eigenvalue-minimisations  :  4224
 total energy-change (2. order) :-0.9324557E+02  (-0.9014076E+02)
 number of electron     374.0000000 magnetization 
 augmentation part      374.0000000 magnetization 

 Free energy of the ion-electron system (eV)
  ---------------------------------------------------
  alpha Z        PSCENC =       563.70841644
  Ewald energy   TEWEN  =     77816.60930394
  -Hartree energ DENC   =    -97818.42784350
  -exchange      EXHF   =         0.00000000
  -V(xc)+E(xc)   XCENC  =     -2949.54820818
  PAW double counting   =     21172.02850762   -17089.78808170
  entropy T*S    EENTRO =         0.00074707
  eigenvalues    EBANDS =     -4613.68102491
  atomic energy  EATOM  =     22287.81246318
  Solvation  Ediel_sol  =         0.00000000
  ---------------------------------------------------
  free energy    TOTEN  =      -631.28572004 eV

  energy without entropy =     -631.28646711  energy(sigma->0) =     -631.28590681


--------------------------------------------------------------------------------------------------------




----------------------------------------- Iteration    1(   5)  ---------------------------------------


     EDDAV:  cpu time  152.9381: real time  152.9461
       DOS:  cpu time    0.0029: real time    0.0035
    CHARGE:  cpu time    0.7362: real time    0.7385
    MIXING:  cpu time    0.0083: real time    0.0102
    --------------------------------------------
      LOOP:  cpu time  153.6882: real time  153.7043

 eigenvalue-minimisations  :  4320
 total energy-change (2. order) :-0.6708227E+01  (-0.6590190E+01)
 number of electron     373.9999984 magnetization 
 augmentation part       44.2013646 magnetization 

 Broyden mixing:
  rms(total) = 0.64085E+01    rms(broyden)= 0.64084E+01
  rms(prec ) = 0.69758E+01
  weight for this iteration     100.00

 Free energy of the ion-electron system (eV)
  ---------------------------------------------------
  alpha Z        PSCENC =       563.70841644
  Ewald energy   TEWEN  =     77816.60930394
  -Hartree energ DENC   =    -97818.42784350
  -exchange      EXHF   =         0.00000000
  -V(xc)+E(xc)   XCENC  =     -2949.54820818
  PAW double counting   =     21172.02850762   -17089.78808170
  entropy T*S    EENTRO =        -0.00400051
  eigenvalues    EBANDS =     -4620.38450431
  atomic energy  EATOM  =     22287.81246318
  Solvation  Ediel_sol  =         0.00000000
  ---------------------------------------------------
  free energy    TOTEN  =      -637.99394702 eV

  energy without entropy =     -637.98994650  energy(sigma->0) =     -637.99294689


--------------------------------------------------------------------------------------------------------




----------------------------------------- Iteration    1(   6)  ---------------------------------------


    POTLOK:  cpu time    0.1203: real time    0.1219
    SETDIJ:  cpu time    0.0198: real time    0.0216
     EDDAV:  cpu time  153.0188: real time  153.0189
       DOS:  cpu time    0.0004: real time    0.0004
    CHARGE:  cpu time    0.7240: real time    0.7240
    MIXING:  cpu time    0.0085: real time    0.0112
    --------------------------------------------
      LOOP:  cpu time  153.8945: real time  153.9054

 eigenvalue-minimisations  :  4320
 total energy-change (2. order) :-0.7872141E+02  (-0.1490353E+03)
 number of electron     373.9999966 magnetization 
 augmentation part       73.9820536 magnetization 

 Broyden mixing:
  rms(total) = 0.89355E+01    rms(broyden)= 0.89354E+01
  rms(prec ) = 0.11706E+02
  weight for this iteration     100.00

 eigenvalues of (default mixing * dielectric matrix)
  average eigenvalue GAMMA=   0.4083
  0.4083

 Free energy of the ion-electron system (eV)
  ---------------------------------------------------
  alpha Z        PSCENC =       563.70841644
  Ewald energy   TEWEN  =     77816.60930394
  -Hartree energ DENC   =    -98563.11725067
  -exchange      EXHF   =         0.00000000
  -V(xc)+E(xc)   XCENC  =     -2931.39198115
  PAW double counting   =     25037.17973186   -20953.78213801
  entropy T*S    EENTRO =        -0.00471073
  eigenvalues    EBANDS =     -3973.72919030
  atomic energy  EATOM  =     22287.81246318
  Solvation  Ediel_sol  =         0.00000000
  ---------------------------------------------------
  free energy    TOTEN  =      -716.71535545 eV

  energy without entropy =     -716.71064472  energy(sigma->0) =     -716.71417777


--------------------------------------------------------------------------------------------------------




----------------------------------------- Iteration    1(   7)  ---------------------------------------


    POTLOK:  cpu time    0.1150: real time    0.1150
    SETDIJ:  cpu time    0.0092: real time    0.0092
     EDDAV:  cpu time  145.5512: real time  145.5558
       DOS:  cpu time    0.0004: real time    0.0004
    CHARGE:  cpu time    0.8486: real time    0.8487
    MIXING:  cpu time    0.0041: real time    0.0056
    --------------------------------------------
      LOOP:  cpu time  146.5305: real time  146.5381

 eigenvalue-minimisations  :  4080
 total energy-change (2. order) : 0.9662072E+02  (-0.2784394E+03)
 number of electron     373.9999995 magnetization 
 augmentation part       60.2405878 magnetization 

 Broyden mixing:
  rms(total) = 0.49726E+01    rms(broyden)= 0.49726E+01
  rms(prec ) = 0.73591E+01
  weight for this iteration     100.00

 eigenvalues of (default mixing * dielectric matrix)
  average eigenvalue GAMMA=   0.4994
  0.7722  0.2266

 Free energy of the ion-electron system (eV)
  ---------------------------------------------------
  alpha Z        PSCENC =       563.70841644
  Ewald energy   TEWEN  =     77816.60930394
  -Hartree energ DENC   =    -98066.46924991
  -exchange      EXHF   =         0.00000000
  -V(xc)+E(xc)   XCENC  =     -2935.10497870
  PAW double counting   =     25186.40028190   -21117.82424536
  entropy T*S    EENTRO =        -0.00705828
  eigenvalues    EBANDS =     -4355.21957079
  atomic energy  EATOM  =     22287.81246318
  Solvation  Ediel_sol  =         0.00000000
  ---------------------------------------------------
  free energy    TOTEN  =      -620.09463756 eV

  energy without entropy =     -620.08757929  energy(sigma->0) =     -620.09287299


--------------------------------------------------------------------------------------------------------




----------------------------------------- Iteration    1(   8)  ---------------------------------------


    POTLOK:  cpu time    0.1123: real time    0.1123
    SETDIJ:  cpu time    0.0099: real time    0.0099
     EDDAV:  cpu time  144.2433: real time  144.2466
       DOS:  cpu time    0.0004: real time    0.0004
    CHARGE:  cpu time    0.7333: real time    0.7334
    MIXING:  cpu time    0.0044: real time    0.0064
    --------------------------------------------
      LOOP:  cpu time  145.1056: real time  145.1131

 eigenvalue-minimisations  :  4032
 total energy-change (2. order) :-0.2945929E+02  (-0.1071613E+03)
 number of electron     373.9999989 magnetization 
 augmentation part       47.7689764 magnetization 

 Broyden mixing:
  rms(total) = 0.42787E+01    rms(broyden)= 0.42787E+01
  rms(prec ) = 0.73535E+01
  weight for this iteration     100.00

 eigenvalues of (default mixing * dielectric matrix)
  average eigenvalue GAMMA=   0.5374
  1.1337  0.2393  0.2393

 Free energy of the ion-electron system (eV)
  ---------------------------------------------------
  alpha Z        PSCENC =       563.70841644
  Ewald energy   TEWEN  =     77816.60930394
  -Hartree energ DENC   =    -98079.57320565
  -exchange      EXHF   =         0.00000000
  -V(xc)+E(xc)   XCENC  =     -2938.46396000
  PAW double counting   =     25643.50152636   -21586.59940152
  entropy T*S    EENTRO =         0.00805703
  eigenvalues    EBANDS =     -4356.55712955
  atomic energy  EATOM  =     22287.81246318
  Solvation  Ediel_sol  =         0.00000000
  ---------------------------------------------------
  free energy    TOTEN  =      -649.55392977 eV

  energy without entropy =     -649.56198680  energy(sigma->0) =     -649.55594403


--------------------------------------------------------------------------------------------------------




----------------------------------------- Iteration    1(   9)  ---------------------------------------


    POTLOK:  cpu time    0.1123: real time    0.1123
    SETDIJ:  cpu time    0.0092: real time    0.0092
     EDDAV:  cpu time  150.0081: real time  150.0164
       DOS:  cpu time    0.0046: real time    0.0072
    CHARGE:  cpu time    0.7221: real time    0.7245
    MIXING:  cpu time    0.0080: real time    0.0088
    --------------------------------------------
      LOOP:  cpu time  150.8717: real time  150.8883

 eigenvalue-minimisations  :  4224
 total energy-change (2. order) : 0.4712454E+02  (-0.3783232E+02)
 number of electron     373.9999988 magnetization 
 augmentation part       46.8033609 magnetization 

 Broyden mixing:
  rms(total) = 0.34673E+01    rms(broyden)= 0.34672E+01
  rms(prec ) = 0.50834E+01
  weight for this iteration     100.00

 eigenvalues of (default mixing * dielectric matrix)
  average eigenvalue GAMMA=   0.5173
  1.3401  0.2920  0.2920  0.1454

 Free energy of the ion-electron system (eV)
  ---------------------------------------------------
  alpha Z        PSCENC =       563.70841644
  Ewald energy   TEWEN  =     77816.60930394
  -Hartree energ DENC   =    -98049.40824127
  -exchange      EXHF   =         0.00000000
  -V(xc)+E(xc)   XCENC  =     -2937.15626678
  PAW double counting   =     26195.83751511   -22139.17496050
  entropy T*S    EENTRO =         0.01017817
  eigenvalues    EBANDS =     -4340.66780257
  atomic energy  EATOM  =     22287.81246318
  Solvation  Ediel_sol  =         0.00000000
  ---------------------------------------------------
  free energy    TOTEN  =      -602.42939428 eV

  energy without entropy =     -602.43957245  energy(sigma->0) =     -602.43193882


--------------------------------------------------------------------------------------------------------




----------------------------------------- Iteration    1(  10)  ---------------------------------------


    POTLOK:  cpu time    0.1150: real time    0.1163
    SETDIJ:  cpu time    0.0184: real time    0.0208
     EDDAV:  cpu time  138.3939: real time  138.3951
       DOS:  cpu time    0.0004: real time    0.0004
    CHARGE:  cpu time    0.7219: real time    0.7219
    MIXING:  cpu time    0.0057: real time    0.0071
    --------------------------------------------
      LOOP:  cpu time  139.2602: real time  139.2692

 eigenvalue-minimisations  :  3840
 total energy-change (2. order) : 0.2779525E+02  (-0.1521021E+02)
 number of electron     373.9999988 magnetization 
 augmentation part       49.2676591 magnetization 

 Broyden mixing:
  rms(total) = 0.24955E+01    rms(broyden)= 0.24955E+01
  rms(prec ) = 0.30597E+01
  weight for this iteration     100.00

 eigenvalues of (default mixing * dielectric matrix)
  average eigenvalue GAMMA=   0.5445
  1.5377  0.4041  0.4041  0.2331  0.1438

 Free energy of the ion-electron system (eV)
  ---------------------------------------------------
  alpha Z        PSCENC =       563.70841644
  Ewald energy   TEWEN  =     77816.60930394
  -Hartree energ DENC   =    -98150.03235986
  -exchange      EXHF   =         0.00000000
  -V(xc)+E(xc)   XCENC  =     -2933.19640609
  PAW double counting   =     26911.90683417   -22850.11457431
  entropy T*S    EENTRO =        -0.00257657
  eigenvalues    EBANDS =     -4221.32524287
  atomic energy  EATOM  =     22287.81246318
  Solvation  Ediel_sol  =         0.00000000
  ---------------------------------------------------
  free energy    TOTEN  =      -574.63414196 eV

  energy without entropy =     -574.63156540  energy(sigma->0) =     -574.63349782


--------------------------------------------------------------------------------------------------------




----------------------------------------- Iteration    1(  11)  ---------------------------------------


    POTLOK:  cpu time    0.1140: real time    0.1153
    SETDIJ:  cpu time    0.0101: real time    0.0101
     EDDAV:  cpu time  133.8465: real time  133.8466
       DOS:  cpu time    0.0017: real time    0.0017
    CHARGE:  cpu time    0.7335: real time    0.7334
    MIXING:  cpu time    0.0043: real time    0.0043
    --------------------------------------------
      LOOP:  cpu time  134.7121: real time  134.7154

 eigenvalue-minimisations  :  3696
 total energy-change (2. order) : 0.7443377E+01  (-0.7270669E+01)
 number of electron     373.9999989 magnetization 
 augmentation part       48.8493015 magnetization 

 Broyden mixing:
  rms(total) = 0.19463E+01    rms(broyden)= 0.19463E+01
  rms(prec ) = 0.23107E+01
  weight for this iteration     100.00

 eigenvalues of (default mixing * dielectric matrix)
  average eigenvalue GAMMA=   0.5718
  1.7739  0.5117  0.5117  0.2459  0.2459  0.1417

 Free energy of the ion-electron system (eV)
  ---------------------------------------------------
  alpha Z        PSCENC =       563.70841644
  Ewald energy   TEWEN  =     77816.60930394
  -Hartree energ DENC   =    -98272.28977852
  -exchange      EXHF   =         0.00000000
  -V(xc)+E(xc)   XCENC  =     -2929.88928534
  PAW double counting   =     27539.84427609   -23474.15932182
  entropy T*S    EENTRO =         0.00251486
  eigenvalues    EBANDS =     -4098.82935405
  atomic energy  EATOM  =     22287.81246318
  Solvation  Ediel_sol  =         0.00000000
  ---------------------------------------------------
  free energy    TOTEN  =      -567.19076523 eV

  energy without entropy =     -567.19328009  energy(sigma->0) =     -567.19139394


--------------------------------------------------------------------------------------------------------




----------------------------------------- Iteration    1(  12)  ---------------------------------------


    POTLOK:  cpu time    0.1127: real time    0.1127
    SETDIJ:  cpu time    0.0091: real time    0.0091
     EDDAV:  cpu time  145.6585: real time  145.6635
       DOS:  cpu time    0.0004: real time    0.0004
    CHARGE:  cpu time    0.7219: real time    0.7219
    MIXING:  cpu time    0.0046: real time    0.0046
    --------------------------------------------
      LOOP:  cpu time  146.5092: real time  146.5163

 eigenvalue-minimisations  :  4080
 total energy-change (2. order) : 0.5691478E+01  (-0.2537499E+01)
 number of electron     373.9999989 magnetization 
 augmentation part       50.7471281 magnetization 

 Broyden mixing:
  rms(total) = 0.12886E+01    rms(broyden)= 0.12886E+01
  rms(prec ) = 0.15346E+01
  weight for this iteration     100.00

 eigenvalues of (default mixing * dielectric matrix)
  average eigenvalue GAMMA=   0.5611
  1.8781  0.5724  0.5724  0.2735  0.2735  0.1436  0.2141

 Free energy of the ion-electron system (eV)
  ---------------------------------------------------
  alpha Z        PSCENC =       563.70841644
  Ewald energy   TEWEN  =     77816.60930394
  -Hartree energ DENC   =    -98316.23776985
  -exchange      EXHF   =         0.00000000
  -V(xc)+E(xc)   XCENC  =     -2927.24890500
  PAW double counting   =     28028.66926209   -23957.08408879
  entropy T*S    EENTRO =         0.00810425
  eigenvalues    EBANDS =     -4057.73607315
  atomic energy  EATOM  =     22287.81246318
  Solvation  Ediel_sol  =         0.00000000
  ---------------------------------------------------
  free energy    TOTEN  =      -561.49928689 eV

  energy without entropy =     -561.50739115  energy(sigma->0) =     -561.50131296


--------------------------------------------------------------------------------------------------------




----------------------------------------- Iteration    1(  13)  ---------------------------------------


    POTLOK:  cpu time    0.1125: real time    0.1125
    SETDIJ:  cpu time    0.0091: real time    0.0091
     EDDAV:  cpu time  130.9867: real time  130.9917
       DOS:  cpu time    0.0042: real time    0.0058
    CHARGE:  cpu time    0.7243: real time    0.7271
    MIXING:  cpu time    0.0089: real time    0.0097
    --------------------------------------------
      LOOP:  cpu time  131.8524: real time  131.8642

 eigenvalue-minimisations  :  3600
 total energy-change (2. order) : 0.2089043E+01  (-0.1297285E+01)
 number of electron     373.9999988 magnetization 
 augmentation part       51.6301787 magnetization 

 Broyden mixing:
  rms(total) = 0.83513E+00    rms(broyden)= 0.83513E+00
  rms(prec ) = 0.10170E+01
[...]
             X         Y         Z           dx          dy          dz
      8.576308  8.296846 10.398452            0           0           0  
      8.592167  3.743805 15.092166            0           0           0  
      8.501642  6.107377 17.439985            0           0           0  
      8.516162  0.799950 12.438738            0           0           0  
     13.477907  6.116396 15.238872            0           0           0  
     13.490936  1.153156 10.447489            0           0           0  
     10.033436  3.284281 12.674110            0           0           0  
      9.992925  8.609635 17.107557            0           0           0  
      7.125241  5.815767 10.157648            0           0           0  
      7.079903  1.300171 14.944810            0           0           0  
      8.512220  3.280358 10.204496            0           0           0  
      8.548315  8.371178 14.829140            0           0           0  
     10.222632  8.067230 12.779914            0           0           0  
     10.262048  3.911794 17.309962            0           0           0  
      5.426642  8.104815 10.206391            0           0           0  
      5.353072  3.539559 15.114265            0           0           0  
      8.528427  5.754231 12.656400            0           0           0  
      8.655737  1.537698 17.208600            0           0           0  
      3.848293  7.973169 12.472590            0           0           0  
      3.797058  3.413586 17.392263            0           0           0  
      3.889352  5.732024 14.838208            0           0           0  
      3.900631  0.738911 10.000000            0           0           0  
     10.137387  6.038477 14.993868            0           0           0  
     10.191124  1.104695 10.137364            0           0           0  
      6.829455  7.994241 12.666696            0           0           0  
      6.941085  3.624479 17.280768            0           0           0  
     11.525076  6.315136 17.420612            0           0           0  
     11.667723  1.053724 12.575471            0           0           0  
     11.739193  3.338683 10.411988            0           0           0  
     11.742782  8.274868 15.250377            0           0           0  
      7.185217  3.246439 12.753898            0           0           0  
      7.316369  8.541194 17.221886            0           0           0  
      6.877823  5.935232 14.977508            0           0           0  
      6.877947  0.975598 10.086954            0           0           0  
      5.510835  5.550117 12.484188            0           0           0  
      5.537208  1.100589 17.226424            0           0           0  
      3.512495  3.500193 12.835186            0           0           0  
      3.316706  8.754231 17.327917            0           0           0  
      3.467984  5.872368 10.408681            0           0           0  
      3.431804  1.291063 15.166888            0           0           0  
     11.917712  8.216334 10.245339            0           0           0  
     11.930276  3.675943 15.064929            0           0           0  
      5.241350  3.365425 10.326787            0           0           0  
      5.213159  8.337953 15.115700            0           0           0  
      5.258204  6.230050 17.504320            0           0           0  
      5.289302  0.990642 12.608494            0           0           0  
      1.605379  5.844910 12.851215            0           0           0  
      1.369058  1.595454 17.652463            0           0           0  
     13.720378  5.671342 10.182934            0           0           0  
     13.701399  1.097763 15.023624            0           0           0  
      1.634565  8.339874 10.364530            0           0           0  
      1.651062  3.806647 15.407806            0           0           0  
     13.768315  3.161194 12.533077            0           0           0  
     13.716051  8.370294 17.333072            0           0           0  
      1.994404  3.173136 10.176661            0           0           0  
      1.861943  8.082008 15.008511            0           0           0  
     13.480506  8.379299 12.868857            0           0           0  
     13.293472  4.185325 17.804473            0           0           0  
      1.962207  6.037832 17.517116            0           0           0  
      2.027287  0.877370 12.468150            0           0           0  
     10.071711  5.794019 10.146627            0           0           0  
     10.161821  1.248261 14.883302            0           0           0  
     11.970507  5.661807 12.676598            0           0           0  
     11.866568  1.426083 17.574351            0           0           0  
      5.336544  8.508328 17.526309     0.002812   -0.004591   -0.005409  
     13.478812  2.297152 18.685138     0.033533    0.063054   -0.005234  
      3.539981  1.280679 17.625369     0.000909    0.011628    0.023485  
     13.543903  6.329915 18.148377    -0.479377    0.104053    0.864225  
      3.669976  5.122932 18.395557    -0.052343    0.030137   -0.054449  
 
  14 f  =    8.722954 THz    54.807936 2PiTHz  290.966413 cm-1    36.075250 meV
             X         Y         Z           dx          dy          dz
      8.576308  8.296846 10.398452            0           0           0  
      8.592167  3.743805 15.092166            0           0           0  
      8.501642  6.107377 17.439985            0           0           0  
      8.516162  0.799950 12.438738            0           0           0  
     13.477907  6.116396 15.238872            0           0           0  
     13.490936  1.153156 10.447489            0           0           0  
     10.033436  3.284281 12.674110            0           0           0  
      9.992925  8.609635 17.107557            0           0           0  
      7.125241  5.815767 10.157648            0           0           0  
      7.079903  1.300171 14.944810            0           0           0  
      8.512220  3.280358 10.204496            0           0           0  
      8.548315  8.371178 14.829140            0           0           0  
     10.222632  8.067230 12.779914            0           0           0  
     10.262048  3.911794 17.309962            0           0           0  
      5.426642  8.104815 10.206391            0           0           0  
      5.353072  3.539559 15.114265            0           0           0  
      8.528427  5.754231 12.656400            0           0           0  
      8.655737  1.537698 17.208600            0           0           0  
      3.848293  7.973169 12.472590            0           0           0  
      3.797058  3.413586 17.392263            0           0           0  
      3.889352  5.732024 14.838208            0           0           0  
      3.900631  0.738911 10.000000            0           0           0  
     10.137387  6.038477 14.993868            0           0           0  
     10.191124  1.104695 10.137364            0           0           0  
      6.829455  7.994241 12.666696            0           0           0  
      6.941085  3.624479 17.280768            0           0           0  
     11.525076  6.315136 17.420612            0           0           0  
     11.667723  1.053724 12.575471            0           0           0  
     11.739193  3.338683 10.411988            0           0           0  
     11.742782  8.274868 15.250377            0           0           0  
      7.185217  3.246439 12.753898            0           0           0  
      7.316369  8.541194 17.221886            0           0           0  
      6.877823  5.935232 14.977508            0           0           0  
      6.877947  0.975598 10.086954            0           0           0  
      5.510835  5.550117 12.484188            0           0           0  
      5.537208  1.100589 17.226424            0           0           0  
      3.512495  3.500193 12.835186            0           0           0  
      3.316706  8.754231 17.327917            0           0           0  
      3.467984  5.872368 10.408681            0           0           0  
      3.431804  1.291063 15.166888            0           0           0  
     11.917712  8.216334 10.245339            0           0           0  
     11.930276  3.675943 15.064929            0           0           0  
      5.241350  3.365425 10.326787            0           0           0  
      5.213159  8.337953 15.115700            0           0           0  
      5.258204  6.230050 17.504320            0           0           0  
      5.289302  0.990642 12.608494            0           0           0  
      1.605379  5.844910 12.851215            0           0           0  
      1.369058  1.595454 17.652463            0           0           0  
     13.720378  5.671342 10.182934            0           0           0  
     13.701399  1.097763 15.023624            0           0           0  
      1.634565  8.339874 10.364530            0           0           0  
      1.651062  3.806647 15.407806            0           0           0  
     13.768315  3.161194 12.533077            0           0           0  
     13.716051  8.370294 17.333072            0           0           0  
      1.994404  3.173136 10.176661            0           0           0  
      1.861943  8.082008 15.008511            0           0           0  
     13.480506  8.379299 12.868857            0           0           0  
     13.293472  4.185325 17.804473            0           0           0  
      1.962207  6.037832 17.517116            0           0           0  
      2.027287  0.877370 12.468150            0           0           0  
     10.071711  5.794019 10.146627            0           0           0  
     10.161821  1.248261 14.883302            0           0           0  
     11.970507  5.661807 12.676598            0           0           0  
     11.866568  1.426083 17.574351            0           0           0  
      5.336544  8.508328 17.526309    -0.082217   -0.110207   -0.846606  
     13.478812  2.297152 18.685138    -0.000484    0.012248    0.014529  
      3.539981  1.280679 17.625369    -0.039468   -0.101428   -0.499233  
     13.543903  6.329915 18.148377     0.020803   -0.003847    0.023785  
      3.669976  5.122932 18.395557     0.007151   -0.035267    0.024602  
 
  15 f  =    8.342355 THz    52.416565 2PiTHz  278.271017 cm-1    34.501221 meV
             X         Y         Z           dx          dy          dz
      8.576308  8.296846 10.398452            0           0           0  
      8.592167  3.743805 15.092166            0           0           0  
      8.501642  6.107377 17.439985            0           0           0  
      8.516162  0.799950 12.438738            0           0           0  
     13.477907  6.116396 15.238872            0           0           0  
     13.490936  1.153156 10.447489            0           0           0  
     10.033436  3.284281 12.674110            0           0           0  
      9.992925  8.609635 17.107557            0           0           0  
      7.125241  5.815767 10.157648            0           0           0  
      7.079903  1.300171 14.944810            0           0           0  
      8.512220  3.280358 10.204496            0           0           0  
      8.548315  8.371178 14.829140            0           0           0  
     10.222632  8.067230 12.779914            0           0           0  
     10.262048  3.911794 17.309962            0           0           0  
      5.426642  8.104815 10.206391            0           0           0  
      5.353072  3.539559 15.114265            0           0           0  
      8.528427  5.754231 12.656400            0           0           0  
      8.655737  1.537698 17.208600            0           0           0  
      3.848293  7.973169 12.472590            0           0           0  
      3.797058  3.413586 17.392263            0           0           0  
      3.889352  5.732024 14.838208            0           0           0  
      3.900631  0.738911 10.000000            0           0           0  
     10.137387  6.038477 14.993868            0           0           0  
     10.191124  1.104695 10.137364            0           0           0  
      6.829455  7.994241 12.666696            0           0           0  
      6.941085  3.624479 17.280768            0           0           0  
     11.525076  6.315136 17.420612            0           0           0  
     11.667723  1.053724 12.575471            0           0           0  
     11.739193  3.338683 10.411988            0           0           0  
     11.742782  8.274868 15.250377            0           0           0  
      7.185217  3.246439 12.753898            0           0           0  
      7.316369  8.541194 17.221886            0           0           0  
      6.877823  5.935232 14.977508            0           0           0  
      6.877947  0.975598 10.086954            0           0           0  
      5.510835  5.550117 12.484188            0           0           0  
      5.537208  1.100589 17.226424            0           0           0  
      3.512495  3.500193 12.835186            0           0           0  
      3.316706  8.754231 17.327917            0           0           0  
      3.467984  5.872368 10.408681            0           0           0  
      3.431804  1.291063 15.166888            0           0           0  
     11.917712  8.216334 10.245339            0           0           0  
     11.930276  3.675943 15.064929            0           0           0  
      5.241350  3.365425 10.326787            0           0           0  
      5.213159  8.337953 15.115700            0           0           0  
      5.258204  6.230050 17.504320            0           0           0  
      5.289302  0.990642 12.608494            0           0           0  
      1.605379  5.844910 12.851215            0           0           0  
      1.369058  1.595454 17.652463            0           0           0  
     13.720378  5.671342 10.182934            0           0           0  
     13.701399  1.097763 15.023624            0           0           0  
      1.634565  8.339874 10.364530            0           0           0  
      1.651062  3.806647 15.407806            0           0           0  
     13.768315  3.161194 12.533077            0           0           0  
     13.716051  8.370294 17.333072            0           0           0  
      1.994404  3.173136 10.176661            0           0           0  
      1.861943  8.082008 15.008511            0           0           0  
     13.480506  8.379299 12.868857            0           0           0  
     13.293472  4.185325 17.804473            0           0           0  
      1.962207  6.037832 17.517116            0           0           0  
      2.027287  0.877370 12.468150            0           0           0  
     10.071711  5.794019 10.146627            0           0           0  
     10.161821  1.248261 14.883302            0           0           0  
     11.970507  5.661807 12.676598            0           0           0  
     11.866568  1.426083 17.574351            0           0           0  
      5.336544  8.508328 17.526309     0.045557    0.117520    0.496221  
     13.478812  2.297152 18.685138    -0.004167    0.012092    0.024542  
      3.539981  1.280679 17.625369    -0.085033   -0.092977   -0.848421  
     13.543903  6.329915 18.148377    -0.028202    0.008651    0.010340  
      3.669976  5.122932 18.395557    -0.018176   -0.007854    0.007102  
 
 Finite differences POTIM=  1.500000000000000E-002
  LATTYP: Found a simple orthorhombic cell.
 ALAT       =     9.5644817352
 B/A-ratio  =     1.4398428730
 C/A-ratio  =     2.8922184390
  
  Lattice vectors:
  
 A1 = (   0.0000000000,  -9.5644817352,   0.0000000000)
 A2 = ( -13.7713508606,   0.0000000000,   0.0000000000)
 A3 = (   0.0000000000,   0.0000000000, -27.6625704340)


Analysis of symmetry for initial positions (statically):
=====================================================================
 Subroutine PRICEL returns:
 Original cell was already a primitive cell.
 

 Routine SETGRP: Setting up the symmetry group for a 
 simple orthorhombic supercell.


 Subroutine GETGRP returns: Found  1 space group operations
 (whereof  1 operations were pure point group operations)
 out of a pool of  8 trial point group operations.


The static configuration has the point symmetry C_1 .


Analysis of symmetry for dynamics (positions and initial velocities):
=====================================================================
 Subroutine PRICEL returns:
 Original cell was already a primitive cell.
 

 Routine SETGRP: Setting up the symmetry group for a 
 simple orthorhombic supercell.


 Subroutine GETGRP returns: Found  1 space group operations
 (whereof  1 operations were pure point group operations)
 out of a pool of  8 trial point group operations.


The dynamic configuration has the point symmetry C_1 .


Analysis of constrained symmetry for selective dynamics:
=====================================================================
 Subroutine PRICEL returns:
 Original cell was already a primitive cell.
 

 Routine SETGRP: Setting up the symmetry group for a 
 simple orthorhombic supercell.


 Subroutine GETGRP returns: Found  1 space group operations
 (whereof  1 operations were pure point group operations)
 out of a pool of  8 trial point group operations.


The constrained configuration has the point symmetry C_1 .


 Subroutine INISYM returns: Found  1 space group operations
 (whereof  1 operations are pure point group operations),
 and found     1 'primitive' translations

 
 KPOINTS: k-points                                

Automatic generation of k-mesh.
Space group operators:
 irot       det(A)        alpha          n_x          n_y          n_z        tau_x        tau_y        tau_z
    1     1.000000     0.000000     1.000000     0.000000     0.000000     0.000000     0.000000     0.000000
 
 Subroutine IBZKPT returns following result:
 ===========================================
 
 Found      5 irreducible k-points:
 
 Following reciprocal coordinates:
            Coordinates               Weight
  0.000000  0.000000  0.000000      1.000000
  0.333333  0.000000  0.000000      2.000000
  0.000000  0.333333  0.000000      2.000000
  0.333333  0.333333  0.000000      2.000000
 -0.333333  0.333333  0.000000      2.000000
 
 Following cartesian coordinates:
            Coordinates               Weight
  0.000000  0.000000  0.000000      1.000000
  0.024205  0.000000  0.000000      2.000000
  0.000000  0.034851  0.000000      2.000000
  0.024205  0.034851  0.000000      2.000000
 -0.024205  0.034851  0.000000      2.000000
 
     LOOP+:  cpu time 1405.7366: real time 1405.8836
    4ORBIT:  cpu time    0.0000: real time    0.0000

 total amount of memory used by VASP on root node   797068. kBytes
========================================================================

   base      :      30000. kBytes
   nonl-proj :     659992. kBytes
   fftplans  :       8717. kBytes
   grid      :      48211. kBytes
   one-center:       1073. kBytes
   wavefun   :      49075. kBytes
 
  
  
 General timing and accounting informations for this job:
 ========================================================
  
                  Total CPU time used (sec):    53849.938
                            User time (sec):    53810.589
                          System time (sec):       39.349
                         Elapsed time (sec):    53856.347
  
                   Maximum memory used (kb):      902620.
                   Average memory used (kb):           0.
  
                          Minor page faults:      4469776
                          Major page faults:            0
                 Voluntary context switches:        47127
