 vasp.5.4.1 05Feb16 (build Mar 19 2020 08:54:17) complex                        
  
 executed on           IFC91_ompi date 2021.11.08  00:10:36
 running on   48 total cores
 distrk:  each k-point on   48 cores,    1 groups
 distr:  one band on NCORES_PER_BAND=  24 cores,    2 groups


--------------------------------------------------------------------------------------------------------


 INCAR:
 POTCAR:    PAW_PBE Al 04Jan2001                  
 POTCAR:    PAW_PBE Nb_sv 25May2007               
 POTCAR:    PAW_PBE Ta 17Jan2003                  
 POTCAR:    PAW_PBE Ti 08Apr2002                  
 POTCAR:   PAW_PBE Zr 08Apr2002                   
 POTCAR:    PAW_PBE O 08Apr2002                   

 ----------------------------------------------------------------------------- 
|                                                                             |
|           W    W    AA    RRRRR   N    N  II  N    N   GGGG   !!!           |
|           W    W   A  A   R    R  NN   N  II  NN   N  G    G  !!!           |
|           W    W  A    A  R    R  N N  N  II  N N  N  G       !!!           |
|           W WW W  AAAAAA  RRRRR   N  N N  II  N  N N  G  GGG   !            |
|           WW  WW  A    A  R   R   N   NN  II  N   NN  G    G                |
|           W    W  A    A  R    R  N    N  II  N    N   GGGG   !!!           |
|                                                                             |
|      For optimal performance we recommend to set                            |
|        NCORE= 4 - approx SQRT( number of cores)                             |
|      NCORE specifies how many cores store one orbital (NPAR=cpu/NCORE).     |
|      This setting can  greatly improve the performance of VASP for DFT.     |
|      The default, NPAR=number of cores might be grossly inefficient         |
|      on modern multi-core architectures or massively parallel machines.     |
|      Do your own testing !!!!                                               |
|      Unfortunately you need to use the default for GW and RPA calculations. |
|      (for HF NCORE is supported but not extensively tested yet)             |
|                                                                             |
 ----------------------------------------------------------------------------- 

 POTCAR:    PAW_PBE Al 04Jan2001                  
   VRHFIN =Al: s2p1                                                             
   LEXCH  = PE                                                                  
   EATOM  =    53.5387 eV,    3.9350 Ry                                         
                                                                                
   TITEL  = PAW_PBE Al 04Jan2001                                                
   LULTRA =        F    use ultrasoft PP ?                                      
   IUNSCR =        1    unscreen: 0-lin 1-nonlin 2-no                           
   RPACOR =    1.500    partial core radius                                     
   POMASS =   26.981; ZVAL   =    3.000    mass and valenz                      
   RCORE  =    1.900    outmost cutoff radius                                   
   RWIGS  =    2.650; RWIGS  =    1.402    wigner-seitz radius (au A)           
   ENMAX  =  240.300; ENMIN  =  180.225 eV                                      
   ICORE  =        2    local potential                                         
   LCOR   =        T    correct aug charges                                     
   LPAW   =        T    paw PP                                                  
   EAUG   =  291.052                                                            
   DEXC   =    0.000                                                            
   RMAX   =    1.939    core radius for proj-oper                               
   RAUG   =    1.300    factor for augmentation sphere                          
   RDEP   =    1.966    radius for radial grids                                 
   RDEPT  =    1.856    core radius for aug-charge                              
                                                                                
   Atomic configuration                                                         
    6 entries                                                                   
     n  l   j            E        occ.                                          
     1  0  0.50     -1511.1048   2.0000                                         
     2  0  0.50      -108.1629   2.0000                                         
     2  1  1.50       -69.6402   6.0000                                         
     3  0  0.50        -7.7528   2.0000                                         
     3  1  1.50        -2.7121   1.0000                                         
     3  2  2.50        -2.7212   0.0000                                         
   Description                                                                  
     l       E           TYP  RCUT    TYP  RCUT                                 
     0     -7.7528455     23  1.900                                             
     0     -3.3096929     23  1.900                                             
     1     -2.7120682     23  1.900                                             
     1     13.6058260     23  1.900                                             
     2     -2.7211652      7  1.900                                             
  local pseudopotential read in
  partial core-charges read in
  partial kinetic energy density read in
  atomic valenz-charges read in
  non local Contribution for L=           0  read in
    real space projection operators read in
  non local Contribution for L=           0  read in
    real space projection operators read in
  non local Contribution for L=           1  read in
    real space projection operators read in
  non local Contribution for L=           1  read in
    real space projection operators read in
    PAW grid and wavefunctions read in
 
   number of l-projection  operators is LMAX  =           4
   number of lm-projection operators is LMMAX =           8
 
 POTCAR:    PAW_PBE Nb_sv 25May2007               
   VRHFIN =Nb: 4p5s4d                                                           
   LEXCH  = PE                                                                  
   EATOM  =  1555.1913 eV,  114.3033 Ry                                         
                                                                                
   TITEL  = PAW_PBE Nb_sv 25May2007                                             
   LULTRA =        F    use ultrasoft PP ?                                      
   IUNSCR =        1    unscreen: 0-lin 1-nonlin 2-no                           
   RPACOR =    1.800    partial core radius                                     
   POMASS =   92.910; ZVAL   =   13.000    mass and valenz                      
   RCORE  =    2.400    outmost cutoff radius                                   
   RWIGS  =    2.400; RWIGS  =    1.270    wigner-seitz radius (au A)           
   ENMAX  =  293.235; ENMIN  =  219.927 eV                                      
   ICORE  =        3    local potential                                         
   LCOR   =        T    correct aug charges                                     
   LPAW   =        T    paw PP                                                  
   EAUG   =  455.659                                                            
   DEXC   =    0.000                                                            
   RMAX   =    2.456    core radius for proj-oper                               
   RAUG   =    1.300    factor for augmentation sphere                          
   RDEP   =    2.451    radius for radial grids                                 
   RDEPT  =    1.956    core radius for aug-charge                              
                                                                                
   Atomic configuration                                                         
   11 entries                                                                   
     n  l   j            E        occ.                                          
     1  0  0.50    -18805.2457   2.0000                                         
     2  0  0.50     -2630.2869   2.0000                                         
     2  1  1.50     -2348.4046   6.0000                                         
     3  0  0.50      -438.8757   2.0000                                         
     3  1  1.50      -346.7588   6.0000                                         
     3  2  2.50      -196.2560  10.0000                                         
     4  0  0.50       -58.3859   2.0000                                         
     5  0  0.50        -3.9816   1.0000                                         
     4  1  1.50       -34.5141   6.0000                                         
     4  2  2.50        -3.0408   4.0000                                         
     4  3  2.50        -1.3606   0.0000                                         
   Description                                                                  
     l       E           TYP  RCUT    TYP  RCUT                                 
     0    -58.3859094     23  2.200                                             
     0     -3.9816262     23  2.200                                             
     1    -34.5140738     23  2.200                                             
     1     13.6058260     23  2.200                                             
     2     -3.0408010     23  2.200                                             
     2     -0.1283038     23  2.200                                             
     3     -1.3605826     23  2.400                                             
  local pseudopotential read in
  partial core-charges read in
  partial kinetic energy density read in
  atomic valenz-charges read in
  non local Contribution for L=           0  read in
    real space projection operators read in
  non local Contribution for L=           0  read in
    real space projection operators read in
  non local Contribution for L=           1  read in
    real space projection operators read in
  non local Contribution for L=           1  read in
    real space projection operators read in
  non local Contribution for L=           2  read in
    real space projection operators read in
  non local Contribution for L=           2  read in
    real space projection operators read in
    PAW grid and wavefunctions read in
 
   number of l-projection  operators is LMAX  =           6
   number of lm-projection operators is LMMAX =          18
 
 POTCAR:    PAW_PBE Ta 17Jan2003                  
   VRHFIN =Ta:  6s5d                                                            
   LEXCH  = PE                                                                  
   EATOM  =   130.6506 eV,    9.6025 Ry                                         
                                                                                
   TITEL  = PAW_PBE Ta 17Jan2003                                                
   LULTRA =        F    use ultrasoft PP ?                                      
   IUNSCR =        1    unscreen: 0-lin 1-nonlin 2-no                           
   RPACOR =    2.330    partial core radius                                     
   POMASS =  180.948; ZVAL   =    5.000    mass and valenz                      
   RCORE  =    2.900    outmost cutoff radius                                   
   RWIGS  =    2.840; RWIGS  =    1.503    wigner-seitz radius (au A)           
   ENMAX  =  223.667; ENMIN  =  167.750 eV                                      
   RCLOC  =    2.205    cutoff for local pot                                    
   LCOR   =        T    correct aug charges                                     
   LPAW   =        T    paw PP                                                  
   EAUG   =  332.075                                                            
   DEXC   =    0.000                                                            
   RMAX   =    2.970    core radius for proj-oper                               
   RAUG   =    1.300    factor for augmentation sphere                          
   RDEP   =    3.060    radius for radial grids                                 
   RDEPT  =    2.354    core radius for aug-charge                              
                                                                                
   Atomic configuration                                                         
   16 entries                                                                   
     n  l   j            E        occ.                                          
     1  0  0.50    -67341.2807   2.0000                                         
     2  0  0.50    -11566.9376   2.0000                                         
     2  1  1.50    -10134.1182   6.0000                                         
     3  0  0.50     -2648.5620   2.0000                                         
     3  1  1.50     -2222.6012   6.0000                                         
     3  2  2.50     -1726.3120  10.0000                                         
     4  0  0.50      -538.6961   2.0000                                         
     4  1  1.50      -399.0129   6.0000                                         
     4  2  2.50      -220.3959  10.0000                                         
     4  3  3.50       -23.0374  14.0000                                         
     5  0  0.50       -71.2901   2.0000                                         
     5  1  1.50       -37.8225   6.0000                                         
     5  2  2.50        -2.6455   4.0000                                         
     6  0  0.50        -4.9623   1.0000                                         
     6  1  1.50        -1.3606   0.0000                                         
     5  3  2.50        -1.3606   0.0000                                         
   Description                                                                  
     l       E           TYP  RCUT    TYP  RCUT                                 
     2     -2.6455043     23  2.500                                             
     2     -0.6258895     23  2.500                                             
     0     -4.9622780     23  2.500                                             
     0      4.7531321     23  2.500                                             
     1     -1.3605826     23  2.900                                             
     1     27.2116520     23  2.900                                             
  local pseudopotential read in
  partial core-charges read in
  partial kinetic energy density read in
  atomic valenz-charges read in
  non local Contribution for L=           2  read in
    real space projection operators read in
  non local Contribution for L=           2  read in
    real space projection operators read in
  non local Contribution for L=           0  read in
    real space projection operators read in
  non local Contribution for L=           0  read in
    real space projection operators read in
  non local Contribution for L=           1  read in
    real space projection operators read in
  non local Contribution for L=           1  read in
    real space projection operators read in
    PAW grid and wavefunctions read in
 
   number of l-projection  operators is LMAX  =           6
   number of lm-projection operators is LMMAX =          18
 
 POTCAR:    PAW_PBE Ti 08Apr2002                  
   VRHFIN =Ti: d3 s1                                                            
   LEXCH  = PE                                                                  
   EATOM  =    94.7928 eV,    6.9671 Ry                                         
                                                                                
   TITEL  = PAW_PBE Ti 08Apr2002                                                
   LULTRA =        F    use ultrasoft PP ?                                      
   IUNSCR =        1    unscreen: 0-lin 1-nonlin 2-no                           
   RPACOR =    2.200    partial core radius                                     
   POMASS =   47.880; ZVAL   =    4.000    mass and valenz                      
   RCORE  =    2.800    outmost cutoff radius                                   
   RWIGS  =    2.500; RWIGS  =    1.323    wigner-seitz radius (au A)           
   ENMAX  =  178.330; ENMIN  =  133.747 eV                                      
   RCLOC  =    2.215    cutoff for local pot                                    
   LCOR   =        T    correct aug charges                                     
   LPAW   =        T    paw PP                                                  
   EAUG   =  328.883                                                            
   DEXC   =    0.000                                                            
   RMAX   =    2.868    core radius for proj-oper                               
   RAUG   =    1.300    factor for augmentation sphere                          
   RDEP   =    2.885    radius for radial grids                                 
   RDEPT  =    2.320    core radius for aug-charge                              
                                                                                
   Atomic configuration                                                         
    9 entries                                                                   
     n  l   j            E        occ.                                          
     1  0  0.50     -4865.3608   2.0000                                         
     2  0  0.50      -533.1367   2.0000                                         
     2  1  1.50      -440.5031   6.0000                                         
     3  0  0.50       -59.3186   2.0000                                         
     3  1  1.50       -35.7012   6.0000                                         
     3  2  2.50        -1.9157   3.0000                                         
     4  0  0.50        -3.7291   1.0000                                         
     4  1  1.50        -4.0817   0.0000                                         
     4  3  2.50        -1.3606   0.0000                                         
   Description                                                                  
     l       E           TYP  RCUT    TYP  RCUT                                 
     2     -1.9156924     23  2.800                                             
     2     -0.4062961     23  2.800                                             
     0     -3.7290832     23  2.800                                             
     0     20.4087390     23  2.800                                             
     1     -5.4423304     23  2.800                                             
  local pseudopotential read in
  partial core-charges read in
  partial kinetic energy density read in
  atomic valenz-charges read in
  non local Contribution for L=           2  read in
    real space projection operators read in
  non local Contribution for L=           2  read in
    real space projection operators read in
  non local Contribution for L=           0  read in
    real space projection operators read in
  non local Contribution for L=           0  read in
    real space projection operators read in
  non local Contribution for L=           1  read in
    real space projection operators read in
    PAW grid and wavefunctions read in
 
   number of l-projection  operators is LMAX  =           5
   number of lm-projection operators is LMMAX =          15
 
 POTCAR:   PAW_PBE Zr 08Apr2002                   
   VRHFIN =Zr: 5s4d5p                                                           
   LEXCH  = PE                                                                  
   EATOM  =    77.8472 eV,    5.7216 Ry                                         
                                                                                
   TITEL  = PAW_PBE Zr 08Apr2002                                                
   LULTRA =        F    use ultrasoft PP ?                                      
   IUNSCR =        1    unscreen: 0-lin 1-nonlin 2-no                           
   RPACOR =    2.200    partial core radius                                     
   POMASS =   91.224; ZVAL   =    4.000    mass and valenz                      
   RCORE  =    3.000    outmost cutoff radius                                   
   RWIGS  =    3.070; RWIGS  =    1.625    wigner-seitz radius (au A)           
   ENMAX  =  154.632; ENMIN  =  115.974 eV                                      
   RCLOC  =    2.213    cutoff for local pot                                    
   LCOR   =        T    correct aug charges                                     
   LPAW   =        T    paw PP                                                  
   EAUG   =  243.217                                                            
   DEXC   =    -.082                                                            
   RMAX   =    3.708    core radius for proj-oper                               
   RAUG   =    1.300    factor for augmentation sphere                          
   RDEP   =    3.146    radius for radial grids                                 
   QCUT   =   -3.371; QGAM   =    6.742    optimization parameters              
                                                                                
   Description                                                                  
     l     E      TYP  RCUT    TYP  RCUT                                        
     2   .000     23  3.000                                                     
     2   .000     23  3.000                                                     
     0   .000     23  3.000                                                     
     0  2.000     23  3.000                                                     
     1  -.400     23  3.000                                                     
     3   .000      7   .000                                                     
  local pseudopotential read in
  partial core-charges read in
  atomic valenz-charges read in
  non local Contribution for L=           2  read in
    real space projection operators read in
  non local Contribution for L=           2  read in
    real space projection operators read in
  non local Contribution for L=           0  read in
    real space projection operators read in
  non local Contribution for L=           0  read in
    real space projection operators read in
  non local Contribution for L=           1  read in
    real space projection operators read in
    PAW grid and wavefunctions read in
 
   number of l-projection  operators is LMAX  =           5
   number of lm-projection operators is LMMAX =          15
 
 POTCAR:    PAW_PBE O 08Apr2002                   
   VRHFIN =O: s2p4                                                              
   LEXCH  = PE                                                                  
   EATOM  =   432.3788 eV,   31.7789 Ry                                         
                                                                                
   TITEL  = PAW_PBE O 08Apr2002                                                 
   LULTRA =        F    use ultrasoft PP ?                                      
   IUNSCR =        1    unscreen: 0-lin 1-nonlin 2-no                           
   RPACOR =    1.200    partial core radius                                     
   POMASS =   16.000; ZVAL   =    6.000    mass and valenz                      
   RCORE  =    1.520    outmost cutoff radius                                   
   RWIGS  =    1.550; RWIGS  =    0.820    wigner-seitz radius (au A)           
   ENMAX  =  400.000; ENMIN  =  300.000 eV                                      
   ICORE  =        2    local potential                                         
   LCOR   =        T    correct aug charges                                     
   LPAW   =        T    paw PP                                                  
   EAUG   =  605.392                                                            
   DEXC   =    0.000                                                            
   RMAX   =    1.553    core radius for proj-oper                               
   RAUG   =    1.300    factor for augmentation sphere                          
   RDEP   =    1.550    radius for radial grids                                 
   RDEPT  =    1.329    core radius for aug-charge                              
                                                                                
   Atomic configuration                                                         
    4 entries                                                                   
     n  l   j            E        occ.                                          
     1  0  0.50      -514.6923   2.0000                                         
     2  0  0.50       -23.9615   2.0000                                         
     2  1  0.50        -9.0305   4.0000                                         
     3  2  1.50        -9.5241   0.0000                                         
   Description                                                                  
     l       E           TYP  RCUT    TYP  RCUT                                 
     0    -23.9615318     23  1.200                                             
     0     -9.5240782     23  1.200                                             
     1     -9.0304911     23  1.520                                             
     1      8.1634956     23  1.520                                             
     2     -9.5240782      7  1.500                                             
  local pseudopotential read in
  partial core-charges read in
  partial kinetic energy density read in
  kinetic energy density of atom read in
  atomic valenz-charges read in
  non local Contribution for L=           0  read in
    real space projection operators read in
  non local Contribution for L=           0  read in
    real space projection operators read in
  non local Contribution for L=           1  read in
    real space projection operators read in
  non local Contribution for L=           1  read in
    real space projection operators read in
    PAW grid and wavefunctions read in
 
   number of l-projection  operators is LMAX  =           4
   number of lm-projection operators is LMMAX =           8
 

 ----------------------------------------------------------------------------- 
|                                                                             |
|  ADVICE TO THIS USER RUNNING 'VASP/VAMP'   (HEAR YOUR MASTER'S VOICE ...):  |
|                                                                             |
|      You have a (more or less) 'large supercell' and for larger cells       |
|      it might be more efficient to use real space projection opertators     |
|      So try LREAL= Auto  in the INCAR   file.                               |
|      Mind: At the moment your POTCAR file does not contain real space       |
|       projectors, and has to be modified,  BUT if you                       |
|      want to do an extremely  accurate calculation you might also keep the  |
|      reciprocal projection scheme          (i.e. LREAL=.FALSE.)             |
|                                                                             |
 ----------------------------------------------------------------------------- 

 WARNING: PSMAXN for non-local potential too small
          PSMAXN should be >   12.5490833729506       NTYP=           5
  PAW_PBE Al 04Jan2001                  :
 energy of atom  1       EATOM=  -53.5387
 kinetic energy error for atom=    0.0002 (will be added to EATOM!!)
  PAW_PBE Nb_sv 25May2007               :
 energy of atom  2       EATOM=-1555.1913
 kinetic energy error for atom=    0.0037 (will be added to EATOM!!)
  PAW_PBE Ta 17Jan2003                  :
 energy of atom  3       EATOM= -130.6506
 kinetic energy error for atom=    0.0004 (will be added to EATOM!!)
  PAW_PBE Ti 08Apr2002                  :
 energy of atom  4       EATOM=  -94.7928
 kinetic energy error for atom=    0.0001 (will be added to EATOM!!)
 PAW_PBE Zr 08Apr2002                   :
 energy of atom  5       EATOM=  -77.8472
 kinetic energy error for atom=    0.0001 (will be added to EATOM!!)
  PAW_PBE O 08Apr2002                   :
 energy of atom  6       EATOM= -432.3788
 kinetic energy error for atom=    0.0168 (will be added to EATOM!!)
 
 
 POSCAR: Al Nb Ta Ti Zr                          
  positions in direct lattice
  velocities in cartesian coordinates
 exchange correlation table for  LEXCH =        8
   RHO(1)=    0.500       N(1)  =     2000
   RHO(2)=  100.500       N(2)  =     4000
 


--------------------------------------------------------------------------------------------------------


 ion  position               nearest neighbor table
   1  0.623  0.867  0.376-  34 2.83  25 2.88  24 2.88   9 2.88  13 2.90   4 2.91  61 2.93  15 3.16
                            41 3.35  17 3.40
   2  0.623  0.381  0.544-  90 1.87  86 1.91  94 1.95  31 2.71  23 2.71   7 2.79  33 2.80  10 3.05
                            62 3.06  16 3.14  26 3.17  17 3.18  42 3.34
   3  0.612  0.659  0.637-  78 1.78  79 1.80  75 1.82  86 1.83  85 2.06  91 2.32  32 2.77  26 2.90
                            23 2.97   8 3.06  45 3.14  33 3.17
   4  0.618  0.084  0.450-  31 2.80  24 2.86  34 2.87  13 2.88   1 2.91  25 2.92   7 2.92  62 3.12
                            28 3.16  46 3.24
   5  0.972  0.640  0.543-  93 1.92  82 1.99  88 2.03  30 2.71  63 2.78  47 2.96  42 3.01  52 3.03
                            23 3.11  57 3.12  56 3.16  59 3.59
   6  0.980  0.121  0.378-  29 2.80  28 2.80  53 2.91  41 2.96  51 3.05  55 3.05  60 3.08  57 3.37

   7  0.729  0.343  0.458-  28 2.77   2 2.79  29 2.83  31 2.85  17 2.89  11 2.90   4 2.92  63 3.07
                            42 3.10  62 3.25
   8  0.743  0.917  0.640-  78 2.05  91 2.08  71 2.10  77 2.19  83 2.22  18 2.66  27 2.88  64 2.98
                            30 2.98  32 3.01   3 3.06  62 3.24
   9  0.517  0.608  0.367-  35 2.84  15 2.85  17 2.87   1 2.88  11 2.89  61 2.95  43 3.10
  10  0.497  0.122  0.558-  90 2.15  92 2.19  94 2.22  16 2.80  12 2.94  44 2.96  36 2.97   2 3.05
                            18 3.07  32 3.09  46 3.24  62 3.40  40 3.47
  11  0.618  0.343  0.369-  24 2.75  34 2.83  31 2.87   9 2.89   7 2.90  61 2.96  43 3.27
  12  0.611  0.869  0.540-  91 2.04  85 2.38  25 2.79  13 2.82  33 2.83  10 2.94  62 2.94  30 3.08
                            44 3.16
  13  0.742  0.843  0.462-  30 2.63  12 2.82  17 2.87   4 2.88   1 2.90  28 2.94  63 2.98  41 3.05
                            57 3.27  62 3.42
  14  0.770  0.407  0.653-  74 1.95  79 1.96  89 2.00  76 2.05  58 2.96  27 2.98  64 3.04  18 3.18
                            42 3.25
  15  0.394  0.847  0.369-  22 2.68  19 2.76  25 2.83  34 2.84   9 2.85  39 2.98   1 3.16  46 3.43

  16  0.397  0.366  0.532-  94 1.96  84 2.05  87 2.22  92 2.31  31 2.62  37 2.71  21 2.78  10 2.80
                            33 2.82  20 2.96  35 3.03  40 3.05   2 3.14  46 3.28
  17  0.619  0.602  0.458-  33 2.72  25 2.81  31 2.85   9 2.87  13 2.87   7 2.89  61 2.95  35 3.03
                             2 3.18  23 3.34   1 3.40  63 3.44
  18  0.630  0.142  0.647-  72 2.00  90 2.00  71 2.06  74 2.13  32 2.58   8 2.66  89 2.72  26 2.83
                            10 3.07  36 3.15  14 3.18  62 3.25  64 3.58
  19  0.279  0.834  0.451-  15 2.76  35 2.94  46 2.96  39 2.97  25 2.99  44 3.00  60 3.07  51 3.08
                            47 3.12  56 3.25
  20  0.286  0.365  0.624-  70 2.06  92 2.12  69 2.13  87 2.19  84 2.30  67 2.43  16 2.96  36 2.97
                            48 3.07  59 3.10  21 3.14  40 3.22  26 3.24  52 3.24  45 3.34
  21  0.269  0.589  0.541-  84 2.10  87 2.10  80 2.14  82 2.17  16 2.78  47 2.99  56 3.00  37 3.03
                            59 3.05  44 3.06  35 3.08  52 3.09  20 3.14  45 3.43
  22  0.283  0.077  0.361-  15 2.68  46 2.97  43 2.97  34 2.99  51 3.02  55 3.10  60 3.10
  23  0.751  0.592  0.559-  91 1.99  86 2.15  93 2.25  79 2.48  30 2.67  42 2.70   2 2.71   3 2.97
                             5 3.11  63 3.22  17 3.34
  24  0.740  0.115  0.366-  29 2.73  11 2.75  28 2.85   4 2.86   1 2.88  41 3.00
  25  0.496  0.836  0.458-  35 2.78  12 2.79  17 2.81  15 2.83   1 2.88  44 2.91   4 2.92  19 2.99
                            46 2.99  33 3.03
  26  0.517  0.390  0.645-  70 1.87  94 1.89  74 1.99  75 1.99  86 2.51  18 2.83   3 2.90  36 3.04
                             2 3.17  20 3.24  45 3.30
  27  0.869  0.683  0.660-  76 1.99  79 2.00  77 2.01  68 2.03  93 2.05   8 2.88  58 2.89  54 2.94
                            14 2.98
  28  0.847  0.110  0.455-   7 2.77   6 2.80  24 2.85  62 2.86  57 2.90  13 2.94  53 2.98  29 3.15
                             4 3.16  50 3.26  41 3.36
  29  0.852  0.349  0.376-  24 2.73   6 2.80   7 2.83  53 2.94  61 2.98  49 3.07  28 3.15  63 3.25

  30  0.834  0.841  0.545-  83 2.05  91 2.07  88 2.18  13 2.63  23 2.67   5 2.71  62 2.88   8 2.98
                            57 3.00  12 3.08  50 3.12  63 3.43
  31  0.522  0.339  0.461-  16 2.62   2 2.71   4 2.80  17 2.85   7 2.85  35 2.86  11 2.87  46 2.95
                            43 3.11
  32  0.525  0.920  0.644-  78 1.96  72 2.01  85 2.06  65 2.06  36 2.57  18 2.58   3 2.77   8 3.01
                            45 3.01  10 3.09  44 3.39
  33  0.503  0.617  0.537-  85 2.11  86 2.15  87 2.43  17 2.72  35 2.79   2 2.80  16 2.82  12 2.83
                            44 2.90  25 3.03   3 3.17  45 3.48
  34  0.499  0.102  0.365-  11 2.83   1 2.83  15 2.84   4 2.87  43 2.91  46 2.98  22 2.99
  35  0.400  0.580  0.451-  25 2.78  33 2.79   9 2.84  31 2.86  37 2.88  39 2.93  19 2.94  17 3.03
                            16 3.03  21 3.08  43 3.08
  36  0.403  0.119  0.655-  72 1.98  70 2.03  92 2.04  67 2.05  65 2.13  32 2.57  38 2.92  10 2.97
                            20 2.97  26 3.04  18 3.15
  37  0.255  0.366  0.464-  84 2.18  16 2.71  35 2.88  47 3.02  21 3.03  60 3.04  43 3.05  55 3.08
                            46 3.08  40 3.11  52 3.29  39 3.39
  38  0.238  0.930  0.643-  73 1.88  65 2.03  67 2.08  80 2.22  48 2.88  54 2.91  36 2.92  56 2.99
                            59 3.12  45 3.15  44 3.41  40 3.41
  39  0.252  0.614  0.376-  35 2.93  19 2.97  15 2.98  47 3.07  43 3.07  51 3.07  55 3.08  37 3.39
                            49 3.53
  40  0.247  0.132  0.542-  92 2.14  84 2.29  60 2.90  56 3.02  46 3.05  16 3.05  37 3.11  52 3.16
                            44 3.17  20 3.22  48 3.32  38 3.41  10 3.47  50 3.66
  41  0.865  0.859  0.370-   6 2.96  24 3.00  61 3.05  13 3.05  57 3.06  49 3.12   1 3.35  28 3.36
                            51 3.49  63 3.53
  42  0.865  0.365  0.547-  89 2.23  81 2.35  93 2.50  23 2.70  62 2.97   5 3.01   7 3.10  50 3.14
                            53 3.20  52 3.21  14 3.25  63 3.27   2 3.34  58 3.54  64 3.73
  43  0.381  0.352  0.373-  34 2.91  22 2.97  37 3.05  39 3.07  35 3.08   9 3.10  31 3.11  55 3.26
                            11 3.27  46 3.29
  44  0.382  0.864  0.546-  80 2.31  85 2.43  33 2.90  25 2.91  10 2.96  19 3.00  21 3.06  12 3.16
                            40 3.17  56 3.21  45 3.30  46 3.39  32 3.39  38 3.41
  45  0.385  0.678  0.646-  69 2.07  75 2.09  87 2.14  65 2.16  80 2.24  85 2.30  32 3.01   3 3.14
                            38 3.15  59 3.21  44 3.30  26 3.30  20 3.34  21 3.43  33 3.48
  46  0.384  0.104  0.456-  31 2.95  19 2.96  22 2.97  34 2.98  25 2.99  40 3.05  37 3.08  10 3.24
                             4 3.24  60 3.27  16 3.28  43 3.29  44 3.39  15 3.43
  47  0.117  0.611  0.465-  82 2.45   5 2.96  21 2.99  37 3.02  39 3.07  19 3.12  53 3.14  49 3.15
                            57 3.17  56 3.29  52 3.30  63 3.42  51 3.52  55 3.80
  48  0.112  0.171  0.641-  67 2.07  66 2.13  81 2.33  38 2.88  54 3.02  20 3.07  58 3.09  64 3.11
                            52 3.15  50 3.16  40 3.32
  49  0.996  0.593  0.368-  63 3.05  29 3.07  41 3.12  47 3.15  51 3.16  55 3.23  53 3.44  39 3.53
                            61 3.65  57 3.82
  50  0.984  0.086  0.550-  81 2.25  83 2.25  88 2.31  57 3.09  30 3.12  42 3.14  48 3.16  56 3.20
                            52 3.24  64 3.25  28 3.26  54 3.32  62 3.35  60 3.56  53 3.58  40 3.66
  51  0.119  0.872  0.375-  60 3.00  22 3.02   6 3.05  39 3.07  19 3.08  57 3.16  49 3.16  41 3.49
                            47 3.52
  52  0.098  0.382  0.553-  84 2.11  81 2.23  82 2.30   5 3.03  21 3.09  53 3.13  48 3.15  40 3.16
                            42 3.21  50 3.24  20 3.24  37 3.29  47 3.30  58 3.33  59 3.36
  53  1.000  0.331  0.453-   6 2.91  29 2.94  28 2.98  60 3.06  63 3.08  55 3.09  52 3.13  47 3.14
                            42 3.20  49 3.44  50 3.58
  54  0.030  0.879  0.644-  73 2.16  77 2.17  68 2.23  88 2.41  38 2.91  27 2.94  59 2.97  48 3.02
                            56 3.12  64 3.18  50 3.32
  55  0.145  0.332  0.368-   6 3.05  37 3.08  39 3.08  53 3.09  22 3.10  49 3.23  60 3.24  43 3.26
                            47 3.80
  56  0.149  0.850  0.549-  88 2.23  82 2.25  80 2.30  38 2.99  21 3.00  40 3.02  54 3.12   5 3.16
                            50 3.20  59 3.21  44 3.21  19 3.25  47 3.29  57 3.30  60 3.56
  57  0.979  0.876  0.465-  88 2.64  28 2.90  30 3.00  41 3.06  50 3.09  63 3.11   5 3.12  60 3.13
                            51 3.16  47 3.17  13 3.27  56 3.30   6 3.37  49 3.82
  58  0.984  0.430  0.658-  66 2.09  76 2.12  68 2.18  81 2.22  93 2.52  27 2.89  14 2.96  64 3.06
                            59 3.09  48 3.09  52 3.33  42 3.54
  59  0.156  0.627  0.635-  69 2.11  68 2.11  73 2.21  80 2.28  82 2.34  54 2.97  21 3.05  58 3.09
                            20 3.10  38 3.12  56 3.21  45 3.21  52 3.36   5 3.59
  60  0.147  0.092  0.451-  40 2.90  51 3.00  37 3.04  53 3.06  19 3.07   6 3.08  22 3.10  57 3.13
                            55 3.24  46 3.27  50 3.56  56 3.56
  61  0.731  0.606  0.367-   1 2.93  17 2.95   9 2.95  11 2.96  29 2.98  41 3.05  63 3.17  49 3.65

  62  0.742  0.111  0.544-  90 2.05  83 2.20  89 2.32  28 2.86  30 2.88  12 2.94  42 2.97   2 3.06
                             4 3.12   8 3.24  18 3.25   7 3.25  50 3.35  10 3.40  13 3.42  64 3.73
  63  0.869  0.592  0.458-   5 2.78  13 2.98  49 3.05   7 3.07  53 3.08  57 3.11  61 3.17  23 3.22
                            29 3.25  42 3.27  47 3.42  30 3.43  17 3.44  41 3.53
  64  0.890  0.141  0.656-  71 2.12  66 2.12  89 2.15  83 2.28  81 2.45  77 2.47   8 2.98  14 3.04
                            58 3.06  48 3.11  54 3.18  50 3.25  18 3.58  42 3.73  62 3.73
  65  0.380  0.900  0.661-  38 2.03  32 2.06  36 2.13  45 2.16
  66  0.008  0.239  0.692-  58 2.09  64 2.12  48 2.13
  67  0.255  0.140  0.661-  36 2.05  48 2.07  38 2.08  20 2.43
  68  0.015  0.653  0.664-  27 2.03  59 2.11  58 2.18  54 2.23
  69  0.279  0.543  0.670-  45 2.07  59 2.11  20 2.13
  70  0.399  0.327  0.671-  26 1.87  36 2.03  20 2.06
  71  0.753  0.090  0.686-  18 2.06   8 2.10  64 2.12
  72  0.524  0.080  0.691-  36 1.98  18 2.00  32 2.01
  73  0.160  0.814  0.682-  38 1.88  54 2.16  59 2.21
  74  0.643  0.346  0.677-  14 1.95  26 1.99  18 2.13
  75  0.512  0.583  0.671-   3 1.82  26 1.99  45 2.09
  76  0.864  0.507  0.698-  27 1.99  14 2.05  58 2.12
  77  0.885  0.887  0.675-  27 2.01  54 2.17   8 2.19  64 2.47
  78  0.631  0.812  0.673-   3 1.78  32 1.96   8 2.05
  79  0.736  0.606  0.648-   3 1.80  14 1.96  27 2.00  23 2.48
  80  0.271  0.751  0.595-  21 2.14  38 2.22  45 2.24  59 2.28  56 2.30  44 2.31
  81  0.986  0.275  0.598-  58 2.22  52 2.23  50 2.25  48 2.33  42 2.35  64 2.45
  82  0.115  0.621  0.553-   5 1.99  21 2.17  56 2.25  52 2.30  59 2.34  47 2.45
  83  0.851  0.010  0.590-  30 2.05  62 2.20   8 2.22  50 2.25  64 2.28
  84  0.250  0.371  0.543-  16 2.05  21 2.10  52 2.11  37 2.18  40 2.29  20 2.30
  85  0.507  0.757  0.596-  32 2.06   3 2.06  33 2.11  45 2.30  12 2.38  44 2.43
  86  0.611  0.537  0.586-   3 1.83   2 1.91  23 2.15  33 2.15  26 2.51
  87  0.377  0.525  0.590-  21 2.10  45 2.14  20 2.19  16 2.22  33 2.43
  88  0.989  0.845  0.560-   5 2.03  30 2.18  56 2.23  50 2.31  54 2.41  57 2.64
  89  0.796  0.250  0.607-  14 2.00  64 2.15  42 2.23  62 2.32  18 2.72
  90  0.632  0.215  0.579-   2 1.87  18 2.00  62 2.05  10 2.15
  91  0.712  0.778  0.584-  23 1.99  12 2.04  30 2.07   8 2.08   3 2.32
  92  0.361  0.199  0.589-  36 2.04  20 2.12  40 2.14  10 2.19  16 2.31
  93  0.895  0.578  0.597-   5 1.92  27 2.05  23 2.25  42 2.50  58 2.52
  94  0.503  0.347  0.579-  26 1.89   2 1.95  16 1.96  10 2.22
 
  LATTYP: Found a simple orthorhombic cell.
 ALAT       =     9.5644817352
 B/A-ratio  =     1.4398428730
 C/A-ratio  =     2.8922184390
  
  Lattice vectors:
  
 A1 = (   0.0000000000,  -9.5644817352,   0.0000000000)
 A2 = ( -13.7713508606,   0.0000000000,   0.0000000000)
 A3 = (   0.0000000000,   0.0000000000, -27.6625704340)


Analysis of symmetry for initial positions (statically):
=====================================================================
 Subroutine PRICEL returns:
 Original cell was already a primitive cell.
 

 Routine SETGRP: Setting up the symmetry group for a 
 simple orthorhombic supercell.


 Subroutine GETGRP returns: Found  1 space group operations
 (whereof  1 operations were pure point group operations)
 out of a pool of  8 trial point group operations.


The static configuration has the point symmetry C_1 .


Analysis of symmetry for dynamics (positions and initial velocities):
=====================================================================
 Subroutine PRICEL returns:
 Original cell was already a primitive cell.
 

 Routine SETGRP: Setting up the symmetry group for a 
 simple orthorhombic supercell.


 Subroutine GETGRP returns: Found  1 space group operations
 (whereof  1 operations were pure point group operations)
 out of a pool of  8 trial point group operations.


The dynamic configuration has the point symmetry C_1 .


Analysis of constrained symmetry for selective dynamics:
=====================================================================
 Subroutine PRICEL returns:
 Original cell was already a primitive cell.
 

 Routine SETGRP: Setting up the symmetry group for a 
 simple orthorhombic supercell.


 Subroutine GETGRP returns: Found  1 space group operations
 (whereof  1 operations were pure point group operations)
 out of a pool of  8 trial point group operations.


The constrained configuration has the point symmetry C_1 .


 Subroutine INISYM returns: Found  1 space group operations
 (whereof  1 operations are pure point group operations),
 and found     1 'primitive' translations

 
 
 KPOINTS: k-points                                

Automatic generation of k-mesh.
Space group operators:
 irot       det(A)        alpha          n_x          n_y          n_z        tau_x        tau_y        tau_z
    1     1.000000     0.000000     1.000000     0.000000     0.000000     0.000000     0.000000     0.000000
 
 Subroutine IBZKPT returns following result:
 ===========================================
 
 Found      5 irreducible k-points:
 
 Following reciprocal coordinates:
            Coordinates               Weight
  0.000000  0.000000  0.000000      1.000000
  0.333333  0.000000  0.000000      2.000000
  0.000000  0.333333  0.000000      2.000000
  0.333333  0.333333  0.000000      2.000000
 -0.333333  0.333333  0.000000      2.000000
 
 Following cartesian coordinates:
            Coordinates               Weight
  0.000000  0.000000  0.000000      1.000000
  0.024205  0.000000  0.000000      2.000000
  0.000000  0.034851  0.000000      2.000000
  0.024205  0.034851  0.000000      2.000000
 -0.024205  0.034851  0.000000      2.000000
 


--------------------------------------------------------------------------------------------------------




 Dimension of arrays:
   k-points           NKPTS =      5   k-points in BZ     NKDIM =      5   number of bands    NBANDS=    314
   number of dos      NEDOS =    301   number of ions     NIONS =     94
   non local maximal  LDIM  =      6   non local SUM 2l+1 LMDIM =     18
   total plane-waves  NPLWV = 846720
   max r-space proj   IRMAX =      1   max aug-charges    IRDMAX=  25433
   dimension x,y,z NGX =    84 NGY =   60 NGZ =  168
   dimension x,y,z NGXF=   168 NGYF=  120 NGZF=  336
   support grid    NGXF=   168 NGYF=  120 NGZF=  336
   ions per type =               6  10   4  18  26  30
 NGX,Y,Z   is equivalent  to a cutoff of  10.14, 10.43, 10.10 a.u.
 NGXF,Y,Z  is equivalent  to a cutoff of  20.28, 20.86, 20.19 a.u.


 I would recommend the setting:
   dimension x,y,z NGX =    83 NGY =   57 NGZ =  166
 SYSTEM =  (110) surface                           
 POSCAR =  Al Nb Ta Ti Zr                          

 Startparameter for this run:
   NWRITE =      2    write-flag & timer
   PREC   = normal    normal or accurate (medium, high low for compatibility)
   ISTART =      0    job   : 0-new  1-cont  2-samecut
   ICHARG =      2    charge: 1-file 2-atom 10-const
   ISPIN  =      1    spin polarized calculation?
   LNONCOLLINEAR =      F non collinear calculations
   LSORBIT =      F    spin-orbit coupling
   INIWAV =      1    electr: 0-lowe 1-rand  2-diag
   LASPH  =      F    aspherical Exc in radial PAW
   METAGGA=      F    non-selfconsistent MetaGGA calc.

 Electronic Relaxation 1
   ENCUT  =  600.0 eV  44.10 Ry    6.64 a.u.  27.50 19.10 55.25*2*pi/ulx,y,z
   ENINI  =  600.0     initial cutoff
   ENAUG  =  605.4 eV  augmentation charge cutoff
   NELM   =     60;   NELMIN=  2; NELMDL= -5     # of ELM steps 
   EDIFF  = 0.1E-03   stopping-criterion for ELM
   LREAL  =      F    real-space projection
   NLSPLINE    = F    spline interpolate recip. space projectors
   LCOMPAT=      F    compatible to vasp.4.4
   GGA_COMPAT  = T    GGA compatible to vasp.4.4-vasp.4.6
   LMAXPAW     = -100 max onsite density
   LMAXMIX     =    2 max onsite mixed and CHGCAR
   VOSKOWN=      0    Vosko Wilk Nusair interpolation
   ROPT   =    0.00000   0.00000   0.00000   0.00000
   ROPT   =    0.00000   0.00000
 Ionic relaxation
   EDIFFG = 0.1E-02   stopping-criterion for IOM
   NSW    =      0    number of steps for IOM
   NBLOCK =      1;   KBLOCK =      1    inner block; outer block 
   IBRION =     -1    ionic relax: 0-MD 1-quasi-New 2-CG
   NFREE  =      0    steps in history (QN), initial steepest desc. (CG)
   ISIF   =      2    stress and relaxation
   IWAVPR =     10    prediction:  0-non 1-charg 2-wave 3-comb
   ISYM   =      2    0-nonsym 1-usesym 2-fastsym
   LCORR  =      T    Harris-Foulkes like correction to forces

   POTIM  = 0.1000    time-step for ionic-motion
   TEIN   =    0.0    initial temperature
   TEBEG  =    0.0;   TEEND  =   0.0 temperature during run
   SMASS  =  -3.00    Nose mass-parameter (am)
   estimated Nose-frequenzy (Omega)   =  0.10E-29 period in steps =****** mass=  -0.433E-26a.u.
   SCALEE = 1.0000    scale energy and forces
   NPACO  =    256;   APACO  = 16.0  distance and # of slots for P.C.
   PSTRESS=    0.0 pullay stress

  Mass of Ions in am
   POMASS =  26.98 92.91180.95 47.88 91.22 16.00
  Ionic Valenz
   ZVAL   =   3.00 13.00  5.00  4.00  4.00  6.00
  Atomic Wigner-Seitz radii
   RWIGS  =  -1.00 -1.00 -1.00 -1.00 -1.00 -1.00
  virtual crystal weights 
   VCA    =   1.00  1.00  1.00  1.00  1.00  1.00
   NELECT =     524.0000    total number of electrons
   NUPDOWN=      -1.0000    fix difference up-down

 DOS related values:
   EMIN   =  10.00;   EMAX   =-10.00  energy-range for DOS
   EFERMI =   0.00
   ISMEAR =     2;   SIGMA  =   0.10  broadening in eV -4-tet -1-fermi 0-gaus

 Electronic relaxation 2 (details)
   IALGO  =     68    algorithm
   LDIAG  =      T    sub-space diagonalisation (order eigenvalues)
   LSUBROT=      F    optimize rotation matrix (better conditioning)
   TURBO    =      0    0=normal 1=particle mesh
   IRESTART =      0    0=no restart 2=restart with 2 vectors
   NREBOOT  =      0    no. of reboots
   NMIN     =      0    reboot dimension
   EREF     =   0.00    reference energy to select bands
   IMIX   =      4    mixing-type and parameters
     AMIX     =   0.40;   BMIX     =  1.00
     AMIX_MAG =   1.60;   BMIX_MAG =  1.00
     AMIN     =   0.10
     WC   =   100.;   INIMIX=   1;  MIXPRE=   1;  MAXMIX= -45

 Intra band minimization:
   WEIMIN = 0.0000     energy-eigenvalue tresh-hold
   EBREAK =  0.80E-07  absolut break condition
   DEPER  =   0.30     relativ break condition  

   TIME   =   0.40     timestep for ELM

  volume/ion in A,a.u.               =      38.76       261.58
  Fermi-wavevector in a.u.,A,eV,Ry     =   0.857713  1.620842 10.009409  0.735671
  Thomas-Fermi vector in A             =   1.974808
 
 Write flags
   LWAVE  =      F    write WAVECAR
   LCHARG =      T    write CHGCAR
   LVTOT  =      F    write LOCPOT, total local potential
   LVHAR  =      F    write LOCPOT, Hartree potential only
   LELF   =      F    write electronic localiz. function (ELF)
   LORBIT =      0    0 simple, 1 ext, 2 COOP (PROOUT)


 Dipole corrections
   LMONO  =      F    monopole corrections only (constant potential shift)
   LDIPOL =      F    correct potential (dipole corrections)
   IDIPOL =      0    1-x, 2-y, 3-z, 4-all directions 
   EPSILON=  1.0000000 bulk dielectric constant

 Exchange correlation treatment:
   GGA     =    --    GGA type
   LEXCH   =     8    internal setting for exchange type
   VOSKOWN=      0    Vosko Wilk Nusair interpolation
   LHFCALC =     F    Hartree Fock is set to
   LHFONE  =     F    Hartree Fock one center treatment
   AEXX    =    0.0000 exact exchange contribution

 Linear response parameters
   LEPSILON=     F    determine dielectric tensor
   LRPA    =     F    only Hartree local field effects (RPA)
   LNABLA  =     F    use nabla operator in PAW spheres
   LVEL    =     F    velocity operator in full k-point grid
   LINTERFAST=   F  fast interpolation
   KINTER  =     0    interpolate to denser k-point grid
   CSHIFT  =0.1000    complex shift for real part using Kramers Kronig
   OMEGAMAX=  -1.0    maximum frequency
   DEG_THRESHOLD= 0.2000000E-02 threshold for treating states as degnerate
   RTIME   =    0.100 relaxation time in fs

 Orbital magnetization related:
   ORBITALMAG=     F  switch on orbital magnetization
   LCHIMAG   =     F  perturbation theory with respect to B field
   DQ        =  0.001000  dq finite difference perturbation B field



--------------------------------------------------------------------------------------------------------


 Static calculation
 charge density and potential will be updated during run
 non-spin polarized calculation
 RMM-DIIS sequential band-by-band and
  variant of blocked Davidson during initial phase
 perform sub-space diagonalisation
    before iterative eigenvector-optimisation
 modified Broyden-mixing scheme, WC =      100.0
 initial mixing is a Kerker type mixing with AMIX =  0.4000 and BMIX =      1.0000
 Hartree-type preconditioning will be used
 using additional bands           52
 reciprocal scheme for non local part
 use partial core corrections
 calculate Harris-corrections to forces 
   (improved forces if not selfconsistent)
 use gradient corrections 
 use of overlap-Matrix (Vanderbilt PP)
 Methfessel and Paxton  Order N= 2 SIGMA  =   0.10


--------------------------------------------------------------------------------------------------------


  energy-cutoff  :      600.00
  volume of cell :     3643.60
      direct lattice vectors                 reciprocal lattice vectors
    13.771350861  0.000000000  0.000000000     0.072614518  0.000000000  0.000000000
     0.000000000  9.564481735  0.000000000     0.000000000  0.104553496  0.000000000
     0.000000000  0.000000000 27.662570434     0.000000000  0.000000000  0.036149931

  length of vectors
    13.771350861  9.564481735 27.662570434     0.072614518  0.104553496  0.036149931


 
 k-points in units of 2pi/SCALE and weight: k-points                                
   0.00000000  0.00000000  0.00000000       0.111
   0.02420484  0.00000000  0.00000000       0.222
   0.00000000  0.03485117  0.00000000       0.222
   0.02420484  0.03485117  0.00000000       0.222
  -0.02420484  0.03485117  0.00000000       0.222
 
 k-points in reciprocal lattice and weights: k-points                                
   0.00000000  0.00000000  0.00000000       0.111
   0.33333333  0.00000000  0.00000000       0.222
   0.00000000  0.33333333  0.00000000       0.222
   0.33333333  0.33333333  0.00000000       0.222
  -0.33333333  0.33333333  0.00000000       0.222
 
 position of ions in fractional coordinates (direct lattice) 
   0.62276447  0.86746430  0.37590333
   0.62329086  0.38135079  0.54351978
   0.61194120  0.65920684  0.63721534
   0.61839700  0.08363760  0.44965952
   0.97208106  0.64030822  0.54315877
   0.97963780  0.12056648  0.37767599
   0.72857308  0.34338307  0.45816820
   0.74305866  0.91690423  0.63978440
   0.51739597  0.60805875  0.36719826
   0.49698613  0.12228241  0.55817326
   0.61811078  0.34297293  0.36889183
   0.61143542  0.86870565  0.53992541
   0.74231148  0.84345710  0.46199300
   0.76953696  0.40703037  0.65301405
   0.39405298  0.84738672  0.36896032
   0.39674711  0.36608941  0.53205939
   0.61928761  0.60162497  0.45752798
   0.63043395  0.14226470  0.64684809
   0.27944195  0.83362269  0.45088327
   0.28637525  0.36540745  0.62379849
   0.26871811  0.58905644  0.54121793
   0.28324246  0.07725573  0.36149931
   0.75101107  0.59179772  0.55866003
   0.74002355  0.11549973  0.36646499
   0.49591756  0.83582580  0.45790018
   0.51709401  0.38951999  0.64513594
   0.86864815  0.68290861  0.66025835
   0.84724605  0.11017048  0.45460239
   0.85243583  0.34907103  0.37639265
   0.83396022  0.84131273  0.54548916
   0.52175105  0.33942658  0.46105252
   0.52491594  0.91950807  0.64387369
   0.50323155  0.61699369  0.53709142
   0.49943882  0.10200214  0.36464270
   0.40016663  0.58028412  0.45130253
   0.40264529  0.11944648  0.65472314
   0.25505811  0.36595738  0.46399110
   0.23810588  0.92977267  0.64346710
   0.25182599  0.61397660  0.37627308
   0.24696142  0.13232872  0.54201003
   0.86539888  0.85904646  0.37036829
   0.86547850  0.36537922  0.54681582
   0.38059813  0.35186696  0.37331264
   0.38213324  0.86371164  0.54580170
   0.38515088  0.67812445  0.64625619
   0.38408008  0.10357511  0.45579618
   0.11657381  0.61110574  0.46457054
   0.11229625  0.17055056  0.64069991
   0.99629861  0.59295863  0.36811234
   0.98408407  0.08561762  0.55039977
   0.11869311  0.87196302  0.37467704
   0.09827114  0.38188482  0.55341599
   0.99977952  0.33051389  0.45306987
   0.02954376  0.87861313  0.64402152
   0.14482272  0.33176249  0.36788561
   0.14937701  0.85010450  0.54867908
   0.97888047  0.87608504  0.46520830
   0.98396224  0.43045591  0.65808502
   0.15559458  0.62734714  0.63528854
   0.14721048  0.09173214  0.45072276
   0.73135245  0.60578495  0.36679988
   0.74183026  0.11134863  0.54386072
   0.86923259  0.59196168  0.45825814
   0.88992073  0.14060944  0.65632313
   0.37976686  0.89964432  0.66117325
   0.00774836  0.23890217  0.69225106
   0.25497062  0.13953990  0.66114097
   0.01453875  0.65349416  0.66406421
   0.27856143  0.54255306  0.67017511
   0.39924265  0.32679857  0.67100395
   0.75262751  0.08977171  0.68612075
   0.52395664  0.07968176  0.69095525
   0.15963219  0.81434296  0.68191499
   0.64310766  0.34633853  0.67674141
   0.51218272  0.58267257  0.67147242
   0.86443375  0.50702183  0.69830900
   0.88462507  0.88747802  0.67451965
   0.63137652  0.81231999  0.67279865
   0.73561565  0.60594756  0.64773284
   0.27060786  0.75132104  0.59457690
   0.98591562  0.27540212  0.59836647
   0.11465270  0.62106493  0.55305997
   0.85112271  0.01036967  0.58999631
   0.24969937  0.37148240  0.54270041
   0.50662416  0.75669851  0.59614662
   0.61061294  0.53653125  0.58638960
   0.37708564  0.52530307  0.58976107
   0.98914508  0.84547150  0.56006595
   0.79561970  0.24964043  0.60744201
   0.63243562  0.21526217  0.57900167
   0.71228568  0.77832204  0.58371375
   0.36068028  0.19880263  0.58941625
   0.89498927  0.57821543  0.59695653
   0.50312608  0.34655267  0.57882857
 
 position of ions in cartesian coordinates  (Angst):
   8.57630799  8.29684649 10.39845223
   8.58355711  3.64742271 15.03515421
   8.42725699  6.30497181 17.62701432
   8.51616202  0.79995025 12.43873821
  13.38686931  6.12421631 15.02516783
  13.49093588  1.15315590 10.44748880
  10.03343557  3.28428114 12.67411000
  10.23292157  8.76971373 17.69808091
   7.12524148  5.81576681 10.15764776
   6.84417031  1.16956789 15.44050706
   8.51222037  3.28035836 10.20449636
   8.42029173  8.30871931 14.93572468
  10.22263181  8.06723005 12.77991378
  10.59756346  3.89303453 18.06404727
   5.42664188  8.10481479 10.20639088
   5.46374369  3.50145546 14.71813025
   8.52842696  5.75423100 12.65640004
   8.68192717  1.36068810 17.89348090
   3.84829318  7.97316903 12.47259035
   3.94377409  3.49493284 17.25586966
   3.70061143  5.63401961 14.97147905
   3.90063135  0.73891098 10.00000000
  10.34243699  5.66023845 15.45397250
  10.19112400  1.10469510 10.13736353
   6.82945470  7.99424061 12.66669595
   7.12108308  3.72555687 17.84611848
  11.96245843  6.53166693 18.26444315
  11.66772263  1.05372358 12.57547056
  11.73919286  3.33868345 10.41198829
  11.48475882  8.04672022 15.08963219
   7.18521672  3.24643930 12.75389771
   7.22880160  8.79461818 17.81120128
   6.93017825  5.90122488 14.85732929
   6.87794726  0.97559764 10.08695433
   5.51083508  5.55011685 12.48418803
   5.54496954  1.14244370 18.11132506
   3.51249472  3.50019267 12.83518635
   3.27903955  8.89279373 17.79995409
   3.46798404  5.87236796 10.40868071
   3.40099233  1.26565566 14.99339071
  11.91771166  8.21633417 10.24533883
  11.91880812  3.49466284 15.12633112
   5.24135036  3.36542512 10.32678719
   5.26249096  8.26095417 15.09827804
   5.30404789  6.48590896 17.87710731
   5.28930157  0.99064225 12.60849381
   1.60537885  5.84490969 12.85121538
   1.54647113  1.63122773 17.72340650
  13.72037774  5.67134198 10.18293350
  13.55216705  0.81888815 15.22547249
   1.63456451  8.33987442 10.36453009
   1.35332633  3.65253038 15.30890867
  13.76831459  3.16119411 12.53307716
   0.40685752  8.40347921 17.81529065
   1.99440444  3.17313630 10.17666150
   2.05712320  8.13080896 15.17787368
  13.48050634  8.37929939 12.86885734
  13.55048922  4.11708770 18.20432330
   2.14274749  6.00025025 17.57371410
   2.02728715  0.87737042 12.46815015
  10.07171117  5.79401911 10.14662739
  10.21600477  1.06499192 15.04458542
  11.97050705  5.66180669 12.67659812
  12.25541061  1.34485640 18.15558492
   5.22990265  8.60463163 18.28975154
   0.10670533  2.28497547 19.14944364
   3.51128986  1.33462686 18.28885858
   0.20021828  6.25033294 18.36972293
   3.83616719  5.18923885 18.53876612
   5.49811067  3.12565899 18.56169415
  10.36469755  0.85861991 18.97986360
   7.21559066  0.76211473 19.11359822
   2.19835084  7.78876833 18.86352151
   8.85646126  3.31254859 18.72040701
   7.05344800  5.57296111 18.57465319
  11.90442044  4.84940105 19.31702202
  12.18248225  8.48826729 18.65894728
   8.69490752  7.76941968 18.61133991
  10.13042122  5.79557434 17.91795518
   3.72663579  7.18599637 16.44752544
  13.57738986  2.63407859 16.55235457
   1.57892256  5.94016417 15.29906030
  11.72110953  0.09918056 16.32081457
   3.43869767  3.55303667 15.01248833
   6.97689902  7.23742912 16.49094799
   8.40896499  5.13164333 16.22104348
   5.19297867  5.02425160 16.31430718
  13.62186391  8.08649674 15.49286369
  10.95675809  2.38768137 16.80340748
   8.70949283  2.05887108 16.01667449
   9.80913598  7.44424692 16.14702278
   4.96705474  1.90144414 16.30476842
  12.32521122  5.53033091 16.51335216
   6.92872579  3.31459665 16.01188618
 


--------------------------------------------------------------------------------------------------------


 k-point  1 :   0.0000 0.0000 0.0000  plane waves:  121663
 k-point  2 :   0.3333 0.0000 0.0000  plane waves:  121577
 k-point  3 :   0.0000 0.3333 0.0000  plane waves:  121622
 k-point  4 :   0.3333 0.3333 0.0000  plane waves:  121647
 k-point  5 :  -0.3333 0.3333 0.0000  plane waves:  121647

 maximum and minimum number of plane-waves per node :      5107     5041

 maximum number of plane-waves:    121663
 maximum index in each direction: 
   IXMAX=   27   IYMAX=   19   IZMAX=   55
   IXMIN=  -27   IYMIN=  -19   IZMIN=  -55

 WARNING: aliasing errors must be expected set NGX to 110 to avoid them
 WARNING: aliasing errors must be expected set NGY to  78 to avoid them
 WARNING: aliasing errors must be expected set NGZ to 222 to avoid them
 aliasing errors are usually negligible using standard VASP settings
 and one can safely disregard these warnings

 parallel 3D FFT for wavefunctions:
    minimum data exchange during FFTs selected (reduces bandwidth)
 parallel 3D FFT for charge:
    minimum data exchange during FFTs selected (reduces bandwidth)


 total amount of memory used by VASP on root node   146438. kBytes
========================================================================

   base      :      30000. kBytes
   nonl-proj :      29550. kBytes
   fftplans  :       6516. kBytes
   grid      :      15878. kBytes
   one-center:         62. kBytes
   wavefun   :      64432. kBytes
 
     INWAV:  cpu time    0.0000: real time    0.0000
 Broyden mixing: mesh for mixing (old mesh)
   NGX = 55   NGY = 39   NGZ =111
  (NGX  =168   NGY  =120   NGZ  =336)
  gives a total of 238095 points

 initial charge density was supplied:
 charge density of overlapping atoms calculated
 number of electron     524.0000000 magnetization 
 keeping initial charge density in first step


--------------------------------------------------------------------------------------------------------


 Maximum index for augmentation-charges         1033 (set IRDMAX)


--------------------------------------------------------------------------------------------------------


 First call to EWALD:  gamma=   0.115
 Maximum number of real-space cells 3x 4x 2
 Maximum number of reciprocal cells 3x 2x 5

 FEWALD executed in parallel
    FEWALD:  cpu time    0.0034: real time    0.0034


----------------------------------------- Iteration    1(   1)  ---------------------------------------


    POTLOK:  cpu time    0.1079: real time    0.1084
    SETDIJ:  cpu time    0.0149: real time    0.0166
     EDDAV:  cpu time   25.8568: real time   25.8641
       DOS:  cpu time    0.0019: real time    0.0019
    --------------------------------------------
      LOOP:  cpu time   25.9844: real time   25.9979

 eigenvalue-minimisations  :  3268
 total energy-change (2. order) : 0.7181288E+04  (-0.2064914E+05)
 number of electron     524.0000000 magnetization 
 augmentation part      524.0000000 magnetization 

 Free energy of the ion-electron system (eV)
  ---------------------------------------------------
  alpha Z        PSCENC =       873.05958753
  Ewald energy   TEWEN  =    154842.80080909
  -Hartree energ DENC   =   -184646.30348729
  -exchange      EXHF   =         0.00000000
  -V(xc)+E(xc)   XCENC  =     -2245.47509626
  PAW double counting   =     29835.76542988   -25798.49177060
  entropy T*S    EENTRO =         0.01026013
  eigenvalues    EBANDS =      1223.06055584
  atomic energy  EATOM  =     33096.86197280
  Solvation  Ediel_sol  =         0.00000000
  ---------------------------------------------------
  free energy    TOTEN  =      7181.28826112 eV

  energy without entropy =     7181.27800099  energy(sigma->0) =     7181.28569609


--------------------------------------------------------------------------------------------------------




----------------------------------------- Iteration    1(   2)  ---------------------------------------


     EDDAV:  cpu time   25.6341: real time   25.6341
       DOS:  cpu time    0.0019: real time    0.0019
    --------------------------------------------
      LOOP:  cpu time   25.6378: real time   25.6387

 eigenvalue-minimisations  :  3236
 total energy-change (2. order) :-0.5903896E+04  (-0.5714546E+04)
 number of electron     524.0000000 magnetization 
 augmentation part      524.0000000 magnetization 

 Free energy of the ion-electron system (eV)
  ---------------------------------------------------
  alpha Z        PSCENC =       873.05958753
  Ewald energy   TEWEN  =    154842.80080909
  -Hartree energ DENC   =   -184646.30348729
  -exchange      EXHF   =         0.00000000
  -V(xc)+E(xc)   XCENC  =     -2245.47509626
  PAW double counting   =     29835.76542988   -25798.49177060
  entropy T*S    EENTRO =         0.00029558
  eigenvalues    EBANDS =     -4680.82519261
  atomic energy  EATOM  =     33096.86197280
  Solvation  Ediel_sol  =         0.00000000
  ---------------------------------------------------
  free energy    TOTEN  =      1277.39254812 eV

  energy without entropy =     1277.39225254  energy(sigma->0) =     1277.39247423


--------------------------------------------------------------------------------------------------------




----------------------------------------- Iteration    1(   3)  ---------------------------------------


     EDDAV:  cpu time   40.3551: real time   40.3552
       DOS:  cpu time    0.0019: real time    0.0019
    --------------------------------------------
      LOOP:  cpu time   40.3586: real time   40.3602

 eigenvalue-minimisations  :  5640
 total energy-change (2. order) :-0.1890437E+04  (-0.1829957E+04)
 number of electron     524.0000000 magnetization 
 augmentation part      524.0000000 magnetization 

 Free energy of the ion-electron system (eV)
  ---------------------------------------------------
  alpha Z        PSCENC =       873.05958753
  Ewald energy   TEWEN  =    154842.80080909
  -Hartree energ DENC   =   -184646.30348729
  -exchange      EXHF   =         0.00000000
  -V(xc)+E(xc)   XCENC  =     -2245.47509626
  PAW double counting   =     29835.76542988   -25798.49177060
  entropy T*S    EENTRO =        -0.00745918
  eigenvalues    EBANDS =     -6571.25455779
  atomic energy  EATOM  =     33096.86197280
  Solvation  Ediel_sol  =         0.00000000
  ---------------------------------------------------
  free energy    TOTEN  =      -613.04457182 eV

  energy without entropy =     -613.03711264  energy(sigma->0) =     -613.04270702


--------------------------------------------------------------------------------------------------------




----------------------------------------- Iteration    1(   4)  ---------------------------------------


     EDDAV:  cpu time   34.3628: real time   34.3628
       DOS:  cpu time    0.0020: real time    0.0020
    --------------------------------------------
      LOOP:  cpu time   34.3660: real time   34.3676

 eigenvalue-minimisations  :  4656
 total energy-change (2. order) :-0.2848187E+03  (-0.2770559E+03)
 number of electron     524.0000000 magnetization 
 augmentation part      524.0000000 magnetization 

 Free energy of the ion-electron system (eV)
  ---------------------------------------------------
  alpha Z        PSCENC =       873.05958753
  Ewald energy   TEWEN  =    154842.80080909
  -Hartree energ DENC   =   -184646.30348729
  -exchange      EXHF   =         0.00000000
  -V(xc)+E(xc)   XCENC  =     -2245.47509626
  PAW double counting   =     29835.76542988   -25798.49177060
  entropy T*S    EENTRO =         0.00056738
  eigenvalues    EBANDS =     -6856.08132577
  atomic energy  EATOM  =     33096.86197280
  Solvation  Ediel_sol  =         0.00000000
  ---------------------------------------------------
  free energy    TOTEN  =      -897.86331324 eV

  energy without entropy =     -897.86388062  energy(sigma->0) =     -897.86345509


--------------------------------------------------------------------------------------------------------




----------------------------------------- Iteration    1(   5)  ---------------------------------------


     EDDAV:  cpu time   40.4201: real time   40.4201
       DOS:  cpu time    0.0019: real time    0.0019
    CHARGE:  cpu time    0.3915: real time    0.3915
    MIXING:  cpu time    0.0071: real time    0.0077
    --------------------------------------------
      LOOP:  cpu time   40.8220: real time   40.8241

 eigenvalue-minimisations  :  5648
 total energy-change (2. order) :-0.2048835E+02  (-0.1999197E+02)
 number of electron     523.9999992 magnetization 
 augmentation part       63.6577636 magnetization 

 Broyden mixing:
  rms(total) = 0.90352E+01    rms(broyden)= 0.90349E+01
  rms(prec ) = 0.94527E+01
  weight for this iteration     100.00

 Free energy of the ion-electron system (eV)
  ---------------------------------------------------
  alpha Z        PSCENC =       873.05958753
  Ewald energy   TEWEN  =    154842.80080909
  -Hartree energ DENC   =   -184646.30348729
  -exchange      EXHF   =         0.00000000
  -V(xc)+E(xc)   XCENC  =     -2245.47509626
  PAW double counting   =     29835.76542988   -25798.49177060
  entropy T*S    EENTRO =        -0.00511455
  eigenvalues    EBANDS =     -6876.56398979
  atomic energy  EATOM  =     33096.86197280
  Solvation  Ediel_sol  =         0.00000000
  ---------------------------------------------------
  free energy    TOTEN  =      -918.35165919 eV

  energy without entropy =     -918.34654464  energy(sigma->0) =     -918.35038055


--------------------------------------------------------------------------------------------------------




----------------------------------------- Iteration    1(   6)  ---------------------------------------


    POTLOK:  cpu time    0.0992: real time    0.0992
    SETDIJ:  cpu time    0.0102: real time    0.0102
    EDDIAG:  cpu time    1.5785: real time    1.5786
  RMM-DIIS:  cpu time   28.5063: real time   28.5064
    ORTHCH:  cpu time    0.4213: real time    0.4213
       DOS:  cpu time    0.0018: real time    0.0018
    CHARGE:  cpu time    0.3997: real time    0.3997
    MIXING:  cpu time    0.0051: real time    0.0051
    --------------------------------------------
      LOOP:  cpu time   31.0242: real time   31.0262

 eigenvalue-minimisations  :  5095
 total energy-change (2. order) : 0.1864037E+02  (-0.1664890E+03)
 number of electron     523.9999993 magnetization 
 augmentation part       76.3044365 magnetization 

 Broyden mixing:
  rms(total) = 0.51549E+01    rms(broyden)= 0.51545E+01
  rms(prec ) = 0.62232E+01
  weight for this iteration     100.00

 eigenvalues of (default mixing * dielectric matrix)
  average eigenvalue GAMMA=   0.8103
  0.8103

 Free energy of the ion-electron system (eV)
  ---------------------------------------------------
  alpha Z        PSCENC =       873.05958753
  Ewald energy   TEWEN  =    154842.80080909
  -Hartree energ DENC   =   -185742.86155232
  -exchange      EXHF   =         0.00000000
  -V(xc)+E(xc)   XCENC  =     -2193.31601313
  PAW double counting   =     35546.39571768   -31526.08533678
  entropy T*S    EENTRO =        -0.00074175
  eigenvalues    EBANDS =     -5796.56572890
  atomic energy  EATOM  =     33096.86197280
  Solvation  Ediel_sol  =         0.00000000
  ---------------------------------------------------
  free energy    TOTEN  =      -899.71128578 eV

  energy without entropy =     -899.71054403  energy(sigma->0) =     -899.71110034


--------------------------------------------------------------------------------------------------------




----------------------------------------- Iteration    1(   7)  ---------------------------------------


    POTLOK:  cpu time    0.0972: real time    0.0972
    SETDIJ:  cpu time    0.0094: real time    0.0094
    EDDIAG:  cpu time    1.5650: real time    1.5650
  RMM-DIIS:  cpu time   23.2126: real time   23.2127
    ORTHCH:  cpu time    0.4211: real time    0.4211
       DOS:  cpu time    0.0019: real time    0.0019
    CHARGE:  cpu time    0.3983: real time    0.3983
    MIXING:  cpu time    0.0036: real time    0.0036
    --------------------------------------------
      LOOP:  cpu time   25.7111: real time   25.7131

 eigenvalue-minimisations  :  4121
 total energy-change (2. order) : 0.3956191E+01  (-0.4355342E+02)
 number of electron     523.9999996 magnetization 
 augmentation part       72.9225022 magnetization 

 Broyden mixing:
  rms(total) = 0.46476E+01    rms(broyden)= 0.46476E+01
  rms(prec ) = 0.69534E+01
  weight for this iteration     100.00

 eigenvalues of (default mixing * dielectric matrix)
  average eigenvalue GAMMA=   0.7092
  1.0289  0.3894

 Free energy of the ion-electron system (eV)
  ---------------------------------------------------
  alpha Z        PSCENC =       873.05958753
  Ewald energy   TEWEN  =    154842.80080909
  -Hartree energ DENC   =   -184982.16906060
  -exchange      EXHF   =         0.00000000
  -V(xc)+E(xc)   XCENC  =     -2199.70399487
  PAW double counting   =     36805.66984709   -32797.68548944
  entropy T*S    EENTRO =        -0.00931857
  eigenvalues    EBANDS =     -6534.57944750
  atomic energy  EATOM  =     33096.86197280
  Solvation  Ediel_sol  =         0.00000000
  ---------------------------------------------------
  free energy    TOTEN  =      -895.75509447 eV

  energy without entropy =     -895.74577590  energy(sigma->0) =     -895.75276483


--------------------------------------------------------------------------------------------------------




----------------------------------------- Iteration    1(   8)  ---------------------------------------


    POTLOK:  cpu time    0.0960: real time    0.0960
    SETDIJ:  cpu time    0.0096: real time    0.0096
    EDDIAG:  cpu time    1.5756: real time    1.5756
  RMM-DIIS:  cpu time   27.9495: real time   27.9499
    ORTHCH:  cpu time    0.4207: real time    0.4207
       DOS:  cpu time    0.0018: real time    0.0018
    CHARGE:  cpu time    0.3898: real time    0.3898
    MIXING:  cpu time    0.0037: real time    0.0037
    --------------------------------------------
      LOOP:  cpu time   30.4488: real time   30.4509

 eigenvalue-minimisations  :  4968
 total energy-change (2. order) : 0.3717851E+02  (-0.2458686E+02)
 number of electron     523.9999998 magnetization 
 augmentation part       63.1500876 magnetization 

 Broyden mixing:
  rms(total) = 0.38766E+01    rms(broyden)= 0.38766E+01
  rms(prec ) = 0.59911E+01
  weight for this iteration     100.00

 eigenvalues of (default mixing * dielectric matrix)
  average eigenvalue GAMMA=   0.6549
  1.2687  0.4039  0.2923

 Free energy of the ion-electron system (eV)
  ---------------------------------------------------
  alpha Z        PSCENC =       873.05958753
  Ewald energy   TEWEN  =    154842.80080909
  -Hartree energ DENC   =   -185586.91909091
  -exchange      EXHF   =         0.00000000
  -V(xc)+E(xc)   XCENC  =     -2201.26320879
  PAW double counting   =     37992.17422940   -33986.15847918
  entropy T*S    EENTRO =         0.01545979
  eigenvalues    EBANDS =     -5889.14785971
  atomic energy  EATOM  =     33096.86197280
  Solvation  Ediel_sol  =         0.00000000
  ---------------------------------------------------
  free energy    TOTEN  =      -858.57657998 eV

  energy without entropy =     -858.59203977  energy(sigma->0) =     -858.58044493


--------------------------------------------------------------------------------------------------------




----------------------------------------- Iteration    1(   9)  ---------------------------------------


    POTLOK:  cpu time    0.0952: real time    0.0952
    SETDIJ:  cpu time    0.0096: real time    0.0096
    EDDIAG:  cpu time    1.5874: real time    1.5875
  RMM-DIIS:  cpu time   25.3246: real time   25.3247
    ORTHCH:  cpu time    0.4209: real time    0.4209
       DOS:  cpu time    0.0018: real time    0.0018
    CHARGE:  cpu time    0.3888: real time    0.3888
    MIXING:  cpu time    0.0039: real time    0.0039
    --------------------------------------------
      LOOP:  cpu time   27.8344: real time   27.8363

 eigenvalue-minimisations  :  4497
 total energy-change (2. order) : 0.5322393E+02  (-0.7404076E+01)
 number of electron     523.9999995 magnetization 
 augmentation part       64.8717119 magnetization 

 Broyden mixing:
  rms(total) = 0.24379E+01    rms(broyden)= 0.24378E+01
  rms(prec ) = 0.30664E+01
  weight for this iteration     100.00

 eigenvalues of (default mixing * dielectric matrix)
  average eigenvalue GAMMA=   0.6985
  1.5863  0.4985  0.4985  0.2107

 Free energy of the ion-electron system (eV)
  ---------------------------------------------------
  alpha Z        PSCENC =       873.05958753
  Ewald energy   TEWEN  =    154842.80080909
  -Hartree energ DENC   =   -185381.42761042
  -exchange      EXHF   =         0.00000000
  -V(xc)+E(xc)   XCENC  =     -2199.56516875
  PAW double counting   =     39146.79674970   -35134.56028513
  entropy T*S    EENTRO =         0.00268377
  eigenvalues    EBANDS =     -6049.32138949
  atomic energy  EATOM  =     33096.86197280
  Solvation  Ediel_sol  =         0.00000000
  ---------------------------------------------------
  free energy    TOTEN  =      -805.35265091 eV

  energy without entropy =     -805.35533468  energy(sigma->0) =     -805.35332185


--------------------------------------------------------------------------------------------------------




----------------------------------------- Iteration    1(  10)  ---------------------------------------


    POTLOK:  cpu time    0.0958: real time    0.0958
    SETDIJ:  cpu time    0.0096: real time    0.0096
    EDDIAG:  cpu time    1.5901: real time    1.5901
  RMM-DIIS:  cpu time   23.9351: real time   23.9352
    ORTHCH:  cpu time    0.4209: real time    0.4209
       DOS:  cpu time    0.0018: real time    0.0018
    CHARGE:  cpu time    0.3920: real time    0.3920
    MIXING:  cpu time    0.0042: real time    0.0042
    --------------------------------------------
      LOOP:  cpu time   26.4516: real time   26.4534

 eigenvalue-minimisations  :  4250
 total energy-change (2. order) : 0.9267029E+01  (-0.9180539E+01)
 number of electron     523.9999995 magnetization 
 augmentation part       69.9600315 magnetization 

 Broyden mixing:
  rms(total) = 0.15263E+01    rms(broyden)= 0.15263E+01
  rms(prec ) = 0.18988E+01
  weight for this iteration     100.00

 eigenvalues of (default mixing * dielectric matrix)
  average eigenvalue GAMMA=   0.7481
  1.9885  0.7171  0.4955  0.3538  0.1858

 Free energy of the ion-electron system (eV)
  ---------------------------------------------------
  alpha Z        PSCENC =       873.05958753
  Ewald energy   TEWEN  =    154842.80080909
  -Hartree energ DENC   =   -185559.62346696
  -exchange      EXHF   =         0.00000000
  -V(xc)+E(xc)   XCENC  =     -2193.99048250
  PAW double counting   =     40465.78123385   -36444.42960392
  entropy T*S    EENTRO =        -0.00039526
  eigenvalues    EBANDS =     -5876.54527624
  atomic energy  EATOM  =     33096.86197280
  Solvation  Ediel_sol  =         0.00000000
  ---------------------------------------------------
  free energy    TOTEN  =      -796.08562160 eV

  energy without entropy =     -796.08522634  energy(sigma->0) =     -796.08552278


--------------------------------------------------------------------------------------------------------




----------------------------------------- Iteration    1(  11)  ---------------------------------------


    POTLOK:  cpu time    0.0957: real time    0.0957
    SETDIJ:  cpu time    0.0095: real time    0.0095
    EDDIAG:  cpu time    1.5887: real time    1.5887
  RMM-DIIS:  cpu time   26.5607: real time   26.5610
    ORTHCH:  cpu time    0.4199: real time    0.4199
[...]
   0.276E+03 0.112E+02 -.537E+03   -.276E+03 -.101E+02 0.538E+03   0.216E+00 -.116E+01 -.626E+00   0.349E-03 0.655E-03 -.216E-02
   0.121E+03 -.905E+02 0.198E+03   -.119E+03 0.913E+02 -.200E+03   -.160E+01 -.811E+00 0.229E+01   0.695E-03 0.281E-03 -.129E-02
   0.116E+03 -.526E+02 0.675E+03   -.115E+03 0.527E+02 -.672E+03   -.772E+00 -.220E+00 -.269E+01   -.502E-04 -.219E-03 0.894E-03
   -.128E+03 0.618E+02 0.155E+03   0.128E+03 -.617E+02 -.157E+03   0.247E+00 -.965E-01 0.192E+01   -.656E-03 0.651E-03 -.124E-02
   -.991E+02 0.606E+02 0.729E+03   0.985E+02 -.601E+02 -.726E+03   0.465E+00 -.366E+00 -.280E+01   -.709E-04 0.531E-03 0.836E-03
   0.761E+02 -.332E+02 0.447E+03   -.770E+02 0.322E+02 -.447E+03   0.100E+01 0.109E+01 -.898E+00   -.405E-03 -.843E-04 0.919E-03
   0.461E+02 -.122E+02 -.592E+03   -.465E+02 0.120E+02 0.593E+03   0.393E+00 0.115E+00 -.973E+00   -.296E-03 0.114E-02 -.158E-02
   -.125E+03 -.514E+02 -.600E+03   0.125E+03 0.508E+02 0.600E+03   0.197E-01 0.550E+00 0.312E+00   -.229E-03 0.252E-03 -.140E-02
   -.160E+03 0.321E+01 0.475E+03   0.160E+03 -.299E+01 -.476E+03   0.424E+00 -.440E+00 -.980E-01   -.828E-03 -.483E-04 -.591E-03
   -.149E+03 -.355E+01 0.697E+03   0.148E+03 0.357E+01 -.693E+03   0.826E+00 -.106E+00 -.268E+01   -.802E-03 -.709E-03 0.799E-03
   -.178E+03 0.189E+02 0.190E+03   0.178E+03 -.186E+02 -.193E+03   0.278E+00 -.258E+00 0.241E+01   -.590E-03 -.384E-03 -.109E-02
   0.567E+02 0.308E+02 0.488E+03   -.562E+02 -.301E+02 -.489E+03   -.261E+00 -.148E+00 -.825E+00   0.399E-03 -.347E-04 0.284E-03
   0.108E+03 -.152E+01 -.520E+03   -.107E+03 0.268E+01 0.520E+03   -.110E+01 -.114E+01 0.696E+00   0.193E-03 -.125E-02 -.177E-02
   0.772E+02 -.363E+02 0.228E+03   -.769E+02 0.370E+02 -.230E+03   -.272E+00 -.688E+00 0.269E+01   -.214E-03 0.308E-04 -.456E-03
   0.327E+02 0.210E+01 0.707E+03   -.334E+02 -.216E+01 -.704E+03   0.562E+00 0.166E-01 -.239E+01   0.180E-03 0.197E-03 0.672E-03
   0.127E+03 -.141E+02 0.465E+03   -.127E+03 0.139E+02 -.464E+03   -.925E+00 0.732E+00 -.665E+00   -.498E-03 0.273E-04 0.122E-02
   0.106E+03 0.518E+02 -.613E+03   -.105E+03 -.505E+02 0.613E+03   -.642E+00 -.138E+01 0.569E+00   0.121E-03 0.227E-03 -.124E-02
   0.145E+03 0.208E+02 0.530E+03   -.146E+03 -.206E+02 -.532E+03   0.296E+00 -.240E+00 0.145E+01   0.240E-03 0.231E-03 0.382E-04
   0.939E+02 -.402E+02 -.428E+03   -.953E+02 0.409E+02 0.427E+03   0.137E+01 -.729E+00 0.465E+00   0.161E-03 -.601E-03 -.145E-02
   0.126E+03 0.350E+02 0.652E+03   -.126E+03 -.347E+02 -.649E+03   0.164E+00 -.525E+00 -.298E+01   -.172E-03 0.240E-03 0.927E-03
   0.187E+03 0.113E+03 0.154E+03   -.187E+03 -.113E+03 -.154E+03   -.684E+00 0.282E+00 0.552E-01   0.542E-03 -.181E-03 -.146E-02
   -.965E+02 -.297E+01 0.701E+03   0.968E+02 0.299E+01 -.697E+03   -.558E+00 0.464E-01 -.325E+01   -.820E-04 0.595E-03 0.892E-03
   -.145E+03 -.285E+01 0.198E+03   0.144E+03 0.195E+01 -.200E+03   0.504E+00 0.878E+00 0.166E+01   -.293E-03 0.405E-03 -.142E-02
   0.128E+03 0.321E+02 0.679E+03   -.127E+03 -.325E+02 -.677E+03   -.175E+00 0.393E+00 -.232E+01   -.454E-03 -.197E-03 0.626E-03
   0.154E+03 -.218E+02 0.141E+03   -.154E+03 0.229E+02 -.144E+03   -.236E+00 -.113E+01 0.295E+01   0.266E-03 -.496E-03 -.110E-02
   0.958E+02 -.462E+02 -.576E+03   -.956E+02 0.442E+02 0.574E+03   -.130E+00 0.199E+01 0.175E+01   0.672E-03 -.295E-03 -.155E-02
   0.112E+03 0.192E+02 0.481E+03   -.112E+03 -.194E+02 -.481E+03   0.484E+00 -.133E+00 -.110E+00   -.459E-03 -.736E-04 0.438E-03
   0.386E+02 -.289E+01 0.469E+03   -.385E+02 0.300E+01 -.471E+03   0.198E+00 0.401E-01 0.764E+00   0.339E-03 0.375E-03 -.133E-03
   -.121E+02 0.270E+02 -.409E+03   0.126E+02 -.280E+02 0.409E+03   -.441E+00 0.895E+00 0.399E+00   0.102E-03 0.308E-03 -.126E-02
   -.385E+02 0.216E-02 0.656E+03   0.388E+02 0.334E+00 -.652E+03   -.212E+00 -.226E+00 -.293E+01   0.398E-03 0.853E-05 0.808E-03
   -.142E+03 -.268E+02 0.152E+03   0.142E+03 0.271E+02 -.152E+03   -.206E+00 -.317E+00 0.509E+00   0.894E-04 -.417E-03 -.125E-02
   0.509E+02 -.631E+01 0.637E+03   -.509E+02 0.558E+01 -.634E+03   -.659E-04 0.273E+00 -.329E+01   0.276E-03 -.612E-04 0.849E-03
   0.543E+02 0.441E+02 0.889E+02   -.537E+02 -.449E+02 -.892E+02   -.614E+00 0.782E+00 0.315E+00   0.419E-03 0.371E-03 -.120E-02
   -.644E+02 0.853E+01 0.456E+03   0.645E+02 -.816E+01 -.457E+03   0.624E-01 0.239E+00 0.220E-01   0.643E-04 0.213E-03 -.312E-03
   -.942E+02 -.741E+02 -.442E+03   0.955E+02 0.744E+02 0.441E+03   -.131E+01 -.367E+00 0.297E-01   -.512E-03 -.562E-03 -.115E-02
   0.436E+02 0.431E+01 0.651E+03   -.428E+02 -.422E+01 -.647E+03   -.860E+00 -.280E+00 -.325E+01   0.160E-03 0.179E-04 0.489E-03
   0.778E+01 -.908E+02 0.128E+03   -.773E+01 0.914E+02 -.129E+03   -.353E-01 -.602E+00 0.313E+00   0.360E-03 -.259E-03 -.166E-02
   -.995E+02 -.160E+02 0.461E+03   0.989E+02 0.155E+02 -.462E+03   0.902E+00 0.222E+00 0.100E+01   -.612E-04 -.306E-03 -.261E-03
   -.174E+03 0.133E+02 -.530E+03   0.173E+03 -.142E+02 0.530E+03   0.140E+01 0.858E+00 -.139E+00   0.574E-04 0.618E-03 -.908E-03
   0.429E+02 0.389E+02 -.420E+03   -.426E+02 -.387E+02 0.420E+03   -.286E+00 -.185E+00 -.771E+00   -.789E-04 -.137E-03 -.133E-02
   0.557E+02 0.162E+01 0.450E+03   -.551E+02 -.181E+01 -.451E+03   -.995E+00 0.339E+00 0.663E-01   0.496E-03 -.384E-03 -.397E-04
   -.141E+03 -.437E+02 0.728E+03   0.140E+03 0.431E+02 -.725E+03   0.768E+00 0.383E-01 -.345E+01   0.290E-03 -.450E-03 0.946E-03
   -.125E+03 -.213E+02 0.220E+03   0.124E+03 0.215E+02 -.219E+03   0.546E+00 -.189E+00 -.557E+00   -.470E-03 -.583E-03 -.162E-02
   -.146E+03 0.112E+02 0.470E+03   0.145E+03 -.111E+02 -.470E+03   0.342E+00 0.223E+00 -.339E+00   -.327E-03 0.176E-03 0.120E-03
   -.183E+03 0.117E+02 -.575E+03   0.182E+03 -.108E+02 0.573E+03   0.876E+00 -.869E+00 0.127E+01   0.519E-04 -.440E-03 -.911E-03
   0.156E+03 0.285E+02 -.947E+03   -.157E+03 -.277E+02 0.955E+03   0.482E+00 -.851E+00 -.806E+01   0.774E-03 -.251E-02 -.160E-02
   -.162E+03 0.361E+02 -.110E+04   0.165E+03 -.385E+02 0.112E+04   -.300E+01 0.238E+01 -.180E+02   -.308E-03 0.504E-03 -.562E-03
   0.199E+03 0.180E+02 -.919E+03   -.198E+03 -.154E+02 0.928E+03   -.112E+01 -.265E+01 -.908E+01   -.622E-03 0.121E-02 -.139E-02
   -.169E+03 0.586E+01 -.889E+03   0.170E+03 -.410E+01 0.897E+03   -.167E+01 -.177E+01 -.799E+01   -.293E-03 0.141E-04 -.200E-02
   0.160E+03 -.526E+01 -.106E+04   -.160E+03 0.176E+01 0.108E+04   0.493E+00 0.350E+01 -.182E+02   0.656E-03 0.956E-04 -.199E-02
   0.148E+03 -.117E+02 -.115E+04   -.150E+03 0.146E+02 0.117E+04   0.264E+01 -.300E+01 -.187E+02   0.661E-03 0.279E-02 -.180E-02
   -.988E+02 -.764E+02 -.128E+04   0.100E+03 0.781E+02 0.130E+04   -.145E+01 -.179E+01 -.204E+02   0.980E-03 -.157E-02 -.123E-02
   0.104E+03 0.102E+02 -.126E+04   -.106E+03 -.968E+01 0.128E+04   0.192E+01 -.538E+00 -.235E+02   0.507E-03 -.558E-03 0.121E-02
   0.187E+02 -.348E+02 -.105E+04   -.195E+02 0.307E+02 0.107E+04   0.790E+00 0.410E+01 -.199E+02   -.573E-03 -.113E-02 -.555E-03
   0.144E+03 0.220E+02 -.120E+04   -.149E+03 -.185E+02 0.122E+04   0.445E+01 -.344E+01 -.170E+02   -.121E-02 0.214E-02 -.129E-02
   0.126E+03 -.315E+02 -.115E+04   -.128E+03 0.304E+02 0.116E+04   0.199E+01 0.103E+01 -.183E+02   0.820E-05 -.248E-03 -.255E-02
   -.213E+03 -.290E+02 -.132E+04   0.212E+03 0.293E+02 0.134E+04   0.286E+00 -.305E+00 -.216E+02   -.814E-05 0.483E-03 -.155E-02
   -.285E+03 -.173E+02 -.109E+04   0.285E+03 0.222E+02 0.110E+04   -.368E+00 -.496E+01 -.114E+02   -.625E-03 -.447E-03 -.230E-02
   0.128E+03 0.506E+02 -.122E+04   -.127E+03 -.499E+02 0.124E+04   -.149E+01 -.630E+00 -.222E+02   0.718E-03 -.107E-02 -.231E-02
   -.344E+02 -.996E+02 -.825E+03   0.350E+02 0.107E+03 0.828E+03   -.713E+00 -.767E+01 -.278E+01   -.605E-03 0.894E-03 -.201E-02
   0.139E+03 -.985E+02 -.232E+03   -.138E+03 0.994E+02 0.231E+03   -.121E+01 -.884E+00 0.682E+00   0.120E-02 -.935E-03 -.327E-02
   -.194E+03 0.220E+02 -.198E+03   0.191E+03 -.220E+02 0.198E+03   0.308E+01 -.212E-01 0.213E-01   0.148E-03 0.518E-03 -.185E-02
   0.511E+02 0.491E+01 0.132E+03   -.507E+02 -.515E+01 -.131E+03   -.301E+00 0.253E+00 -.786E+00   0.306E-03 0.337E-03 -.239E-02
   -.303E+03 -.732E+02 -.905E+02   0.308E+03 0.733E+02 0.929E+02   -.462E+01 -.229E+00 -.242E+01   -.898E-03 -.174E-02 -.148E-02
   0.389E+03 0.450E+02 0.203E+03   -.394E+03 -.467E+02 -.204E+03   0.478E+01 0.174E+01 0.117E+01   0.896E-03 0.205E-03 -.114E-02
   0.218E+03 -.165E+02 -.309E+03   -.219E+03 0.162E+02 0.306E+03   0.685E+00 0.242E+00 0.285E+01   0.357E-04 -.177E-02 -.398E-02
   -.195E+02 0.589E+01 -.136E+03   0.172E+02 -.905E+01 0.137E+03   0.245E+01 0.326E+01 -.692E+00   -.184E-02 0.133E-02 -.298E-02
   0.163E+03 -.162E+03 -.311E+03   -.155E+03 0.164E+03 0.311E+03   -.761E+01 -.173E+01 0.604E+00   0.151E-02 0.643E-03 -.304E-02
   -.176E+03 -.480E+02 0.934E+02   0.175E+03 0.497E+02 -.906E+02   0.126E+01 -.167E+01 -.279E+01   -.296E-03 -.806E-03 -.172E-02
   -.212E+03 0.582E+02 -.219E+03   0.209E+03 -.645E+02 0.213E+03   0.335E+01 0.631E+01 0.604E+01   0.201E-03 -.900E-04 -.187E-02
   -.155E+03 -.373E+01 -.818E+02   0.156E+03 0.858E+01 0.821E+02   -.783E+00 -.486E+01 -.325E+00   -.141E-02 0.149E-03 -.352E-02
   -.155E+03 0.109E+03 -.936E+02   0.154E+03 -.113E+03 0.975E+02   0.124E+01 0.463E+01 -.393E+01   -.310E-03 0.344E-03 -.197E-02
   0.323E+03 0.176E+03 -.298E+03   -.322E+03 -.180E+03 0.298E+03   -.984E+00 0.391E+01 -.123E+00   0.270E-03 0.931E-03 -.494E-02
   -.230E+03 0.243E+02 -.144E+03   0.230E+03 -.250E+02 0.145E+03   -.555E-01 0.740E+00 -.105E+01   -.311E-04 0.130E-02 -.159E-02
   -.380E+02 -.797E+02 -.222E+03   0.408E+02 0.805E+02 0.226E+03   -.273E+01 -.733E+00 -.384E+01   -.739E-03 0.136E-02 -.232E-02
 -----------------------------------------------------------------------------------------------
   -.544E+01 0.713E+01 0.260E+03   0.142E-11 0.000E+00 0.355E-11   0.544E+01 -.712E+01 -.260E+03   -.168E-02 -.913E-03 -.954E-01
 
 
 POSITION                                       TOTAL-FORCE (eV/Angst)
 -----------------------------------------------------------------------------------
      8.57631      8.29685     10.39845        -0.040169     -0.191394      0.094140
      8.58356      3.64742     15.03515         0.009604      0.013409      0.017408
      8.42726      6.30497     17.62701        -0.016859     -0.018082     -0.002388
      8.51616      0.79995     12.43874         0.119687     -0.141871      0.523269
     13.38687      6.12422     15.02517         0.015116     -0.043937      0.007120
     13.49094      1.15316     10.44749         0.012415     -0.430576      0.025763
     10.03344      3.28428     12.67411         0.222744      0.189782     -0.015574
     10.23292      8.76971     17.69808        -0.015828     -0.013592      0.067204
      7.12524      5.81577     10.15765        -0.107721     -0.385586      0.926094
      6.84417      1.16957     15.44051         0.001427      0.018431      0.040445
      8.51222      3.28036     10.20450         0.170257      0.059035      0.793222
      8.42029      8.30872     14.93572         0.032161     -0.004148      0.002458
     10.22263      8.06723     12.77991         0.027820      0.548541     -1.078922
     10.59756      3.89303     18.06405         0.030578      0.007796     -0.005755
      5.42664      8.10481     10.20639         0.291078      0.087196      0.849729
      5.46374      3.50146     14.71813         0.040687      0.013586      0.056010
      8.52843      5.75423     12.65640         0.332432     -0.098653     -0.341024
      8.68193      1.36069     17.89348         0.042761      0.039733     -0.083433
      3.84829      7.97317     12.47259        -0.672621      0.363323      0.110947
      3.94377      3.49493     17.25587        -0.016787     -0.005883      0.014093
      3.70061      5.63402     14.97148         0.005023      0.011367     -0.002682
      3.90063      0.73891     10.00000         0.502721     -0.148893      0.304100
     10.34244      5.66024     15.45397         0.087211     -0.011833      0.113672
     10.19112      1.10470     10.13736        -0.175171      0.147101      0.406487
      6.82945      7.99424     12.66670         0.099139      0.087100     -0.774879
      7.12108      3.72556     17.84612        -0.037560     -0.081905      0.152354
     11.96246      6.53167     18.26444         0.001226     -0.013309      0.056272
     11.66772      1.05372     12.57547        -0.186089     -0.214365     -0.622801
     11.73919      3.33868     10.41199        -0.312829     -0.093292      0.504161
     11.48476      8.04672     15.08963         0.064183     -0.000794     -0.040566
      7.18522      3.24644     12.75390         0.274570      0.516777     -1.920104
      7.22880      8.79462     17.81120         0.005452      0.031615     -0.067152
      6.93018      5.90122     14.85733         0.027595      0.020113     -0.029331
      6.87795      0.97560     10.08695        -0.118221     -0.044656      0.380546
      5.51084      5.55012     12.48419        -0.329514      0.603005     -0.103666
      5.54497      1.14244     18.11133        -0.004482     -0.043071      0.014284
      3.51249      3.50019     12.83519        -0.753512     -0.099678     -0.845225
      3.27904      8.89279     17.79995         0.014120     -0.024747      0.016440
      3.46798      5.87237     10.40868         0.009046     -0.238283     -0.130781
      3.40099      1.26566     14.99339         0.025800      0.015336      0.012656
     11.91771      8.21633     10.24534        -0.245898      0.070844      0.663941
     11.91881      3.49466     15.12633         0.007401     -0.029006      0.029489
      5.24135      3.36543     10.32679         0.110009      0.074978      0.145430
      5.26249      8.26095     15.09828         0.014923     -0.001288     -0.001665
      5.30405      6.48591     17.87711        -0.016361     -0.009134      0.017913
      5.28930      0.99064     12.60849         0.222168     -0.313467     -0.140690
      1.60538      5.84491     12.85122         0.295056      0.146430     -0.887722
      1.54647      1.63123     17.72341         0.004228     -0.020158      0.005499
     13.72038      5.67134     10.18293         0.158657      0.110750      0.670761
     13.55217      0.81889     15.22547         0.015381      0.007000      0.001847
      1.63456      8.33987     10.36453        -0.029219     -0.456600      0.083671
      1.35333      3.65253     15.30891         0.017796      0.003107      0.021283
     13.76831      3.16119     12.53308         0.162795      0.609507     -0.084690
      0.40686      8.40348     17.81529        -0.008218     -0.002684     -0.020765
      1.99440      3.17314     10.17666        -0.113340     -0.189295      0.725389
      2.05712      8.13081     15.17787         0.021243      0.016515     -0.004805
     13.48051      8.37930     12.86886         0.293124     -0.318774     -0.408455
     13.55049      4.11709     18.20432         0.022775     -0.016355      0.006118
      2.14275      6.00025     17.57371        -0.012673      0.009908     -0.006912
      2.02729      0.87737     12.46815        -0.385852      0.149026     -0.561731
     10.07171      5.79402     10.14663         0.058060     -0.574820      0.148683
     10.21600      1.06499     15.04459         0.025978     -0.032242      0.009468
     11.97051      5.66181     12.67660        -0.479002      0.369267     -0.223662
     12.25541      1.34486     18.15558         0.012764     -0.018694      0.037654
      5.22990      8.60463     18.28975         0.016209     -0.027993      0.054875
      0.10671      2.28498     19.14944         0.017782     -0.014030      0.008123
      3.51129      1.33463     18.28886        -0.000019     -0.038296      0.008508
      0.20022      6.25033     18.36972         0.001102     -0.008910      0.002582
      3.83617      5.18924     18.53877        -0.022995      0.002985      0.018445
      5.49811      3.12566     18.56169        -0.059156     -0.039589      0.101877
     10.36470      0.85862     18.97986         0.015693     -0.030579      0.046513
      7.21559      0.76211     19.11360         0.045729     -0.015330     -0.028068
      2.19835      7.78877     18.86352        -0.014723      0.009417     -0.003462
      8.85646      3.31255     18.72041         0.031622      0.007049     -0.001236
      7.05345      5.57296     18.57465        -0.005351     -0.028231     -0.015774
     11.90442      4.84940     19.31702         0.028467     -0.011483      0.023204
     12.18248      8.48827     18.65895         0.010650     -0.004328      0.042296
      8.69491      7.76942     18.61134        -0.036375     -0.017632     -0.022911
     10.13042      5.79557     17.91796        -0.016784      0.017802      0.041770
      3.72664      7.18600     16.44753         0.003203      0.013423      0.003928
     13.57739      2.63408     16.55235         0.007619     -0.021537      0.008197
      1.57892      5.94016     15.29906         0.012635      0.016771     -0.024265
     11.72111      0.09918     16.32081         0.002502     -0.040618      0.033122
      3.43870      3.55304     15.01249         0.022809      0.009816     -0.017860
      6.97690      7.23743     16.49095        -0.024188     -0.019706      0.007196
      8.40896      5.13164     16.22104         0.096502      0.095622     -0.097917
      5.19298      5.02425     16.31431        -0.055838      0.003060      0.020430
     13.62186      8.08650     15.49286         0.027596      0.009177     -0.036892
     10.95676      2.38768     16.80341        -0.036721     -0.049080      0.040418
      8.70949      2.05887     16.01667        -0.003988     -0.020573     -0.045584
      9.80914      7.44425     16.14702         0.078772      0.042115     -0.001249
      4.96705      1.90144     16.30477         0.022446      0.036185      0.027000
     12.32521      5.53033     16.51335        -0.034464      0.017866      0.030280
      6.92873      3.31460     16.01189         0.039980      0.097109      0.125814
 -----------------------------------------------------------------------------------
    total drift:                                0.000786      0.004985      0.010132


--------------------------------------------------------------------------------------------------------



  FREE ENERGIE OF THE ION-ELECTRON SYSTEM (eV)
  ---------------------------------------------------
  free  energy   TOTEN  =      -789.18184057 eV

  energy  without entropy=     -789.17622323  energy(sigma->0) =     -789.18043623
 


--------------------------------------------------------------------------------------------------------


    POTLOK:  cpu time    0.1121: real time    0.1128


--------------------------------------------------------------------------------------------------------


     LOOP+:  cpu time 1003.0668: real time 1003.1925
    4ORBIT:  cpu time    0.0000: real time    0.0000

 total amount of memory used by VASP on root node   146438. kBytes
========================================================================

   base      :      30000. kBytes
   nonl-proj :      29550. kBytes
   fftplans  :       6516. kBytes
   grid      :      15878. kBytes
   one-center:         62. kBytes
   wavefun   :      64432. kBytes
 
  
  
 General timing and accounting informations for this job:
 ========================================================
  
                  Total CPU time used (sec):     1022.996
                            User time (sec):     1019.461
                          System time (sec):        3.535
                         Elapsed time (sec):     1023.132
  
                   Maximum memory used (kb):      182724.
                   Average memory used (kb):           0.
  
                          Minor page faults:        54749
                          Major page faults:            0
                 Voluntary context switches:         1506
