 vasp.5.4.1 05Feb16 (build Mar 19 2020 08:54:17) complex                        
  
 executed on           IFC91_ompi date 2021.11.07  10:11:13
 running on   48 total cores
 distrk:  each k-point on   48 cores,    1 groups
 distr:  one band on NCORES_PER_BAND=  24 cores,    2 groups


--------------------------------------------------------------------------------------------------------


 INCAR:
 POTCAR:    PAW_PBE Al 04Jan2001                  
 POTCAR:    PAW_PBE Nb_sv 25May2007               
 POTCAR:    PAW_PBE Ta 17Jan2003                  
 POTCAR:    PAW_PBE Ti 08Apr2002                  
 POTCAR:   PAW_PBE Zr 08Apr2002                   
 POTCAR:    PAW_PBE O 08Apr2002                   

 ----------------------------------------------------------------------------- 
|                                                                             |
|           W    W    AA    RRRRR   N    N  II  N    N   GGGG   !!!           |
|           W    W   A  A   R    R  NN   N  II  NN   N  G    G  !!!           |
|           W    W  A    A  R    R  N N  N  II  N N  N  G       !!!           |
|           W WW W  AAAAAA  RRRRR   N  N N  II  N  N N  G  GGG   !            |
|           WW  WW  A    A  R   R   N   NN  II  N   NN  G    G                |
|           W    W  A    A  R    R  N    N  II  N    N   GGGG   !!!           |
|                                                                             |
|      For optimal performance we recommend to set                            |
|        NCORE= 4 - approx SQRT( number of cores)                             |
|      NCORE specifies how many cores store one orbital (NPAR=cpu/NCORE).     |
|      This setting can  greatly improve the performance of VASP for DFT.     |
|      The default, NPAR=number of cores might be grossly inefficient         |
|      on modern multi-core architectures or massively parallel machines.     |
|      Do your own testing !!!!                                               |
|      Unfortunately you need to use the default for GW and RPA calculations. |
|      (for HF NCORE is supported but not extensively tested yet)             |
|                                                                             |
 ----------------------------------------------------------------------------- 

 POTCAR:    PAW_PBE Al 04Jan2001                  
   VRHFIN =Al: s2p1                                                             
   LEXCH  = PE                                                                  
   EATOM  =    53.5387 eV,    3.9350 Ry                                         
                                                                                
   TITEL  = PAW_PBE Al 04Jan2001                                                
   LULTRA =        F    use ultrasoft PP ?                                      
   IUNSCR =        1    unscreen: 0-lin 1-nonlin 2-no                           
   RPACOR =    1.500    partial core radius                                     
   POMASS =   26.981; ZVAL   =    3.000    mass and valenz                      
   RCORE  =    1.900    outmost cutoff radius                                   
   RWIGS  =    2.650; RWIGS  =    1.402    wigner-seitz radius (au A)           
   ENMAX  =  240.300; ENMIN  =  180.225 eV                                      
   ICORE  =        2    local potential                                         
   LCOR   =        T    correct aug charges                                     
   LPAW   =        T    paw PP                                                  
   EAUG   =  291.052                                                            
   DEXC   =    0.000                                                            
   RMAX   =    1.939    core radius for proj-oper                               
   RAUG   =    1.300    factor for augmentation sphere                          
   RDEP   =    1.966    radius for radial grids                                 
   RDEPT  =    1.856    core radius for aug-charge                              
                                                                                
   Atomic configuration                                                         
    6 entries                                                                   
     n  l   j            E        occ.                                          
     1  0  0.50     -1511.1048   2.0000                                         
     2  0  0.50      -108.1629   2.0000                                         
     2  1  1.50       -69.6402   6.0000                                         
     3  0  0.50        -7.7528   2.0000                                         
     3  1  1.50        -2.7121   1.0000                                         
     3  2  2.50        -2.7212   0.0000                                         
   Description                                                                  
     l       E           TYP  RCUT    TYP  RCUT                                 
     0     -7.7528455     23  1.900                                             
     0     -3.3096929     23  1.900                                             
     1     -2.7120682     23  1.900                                             
     1     13.6058260     23  1.900                                             
     2     -2.7211652      7  1.900                                             
  local pseudopotential read in
  partial core-charges read in
  partial kinetic energy density read in
  atomic valenz-charges read in
  non local Contribution for L=           0  read in
    real space projection operators read in
  non local Contribution for L=           0  read in
    real space projection operators read in
  non local Contribution for L=           1  read in
    real space projection operators read in
  non local Contribution for L=           1  read in
    real space projection operators read in
    PAW grid and wavefunctions read in
 
   number of l-projection  operators is LMAX  =           4
   number of lm-projection operators is LMMAX =           8
 
 POTCAR:    PAW_PBE Nb_sv 25May2007               
   VRHFIN =Nb: 4p5s4d                                                           
   LEXCH  = PE                                                                  
   EATOM  =  1555.1913 eV,  114.3033 Ry                                         
                                                                                
   TITEL  = PAW_PBE Nb_sv 25May2007                                             
   LULTRA =        F    use ultrasoft PP ?                                      
   IUNSCR =        1    unscreen: 0-lin 1-nonlin 2-no                           
   RPACOR =    1.800    partial core radius                                     
   POMASS =   92.910; ZVAL   =   13.000    mass and valenz                      
   RCORE  =    2.400    outmost cutoff radius                                   
   RWIGS  =    2.400; RWIGS  =    1.270    wigner-seitz radius (au A)           
   ENMAX  =  293.235; ENMIN  =  219.927 eV                                      
   ICORE  =        3    local potential                                         
   LCOR   =        T    correct aug charges                                     
   LPAW   =        T    paw PP                                                  
   EAUG   =  455.659                                                            
   DEXC   =    0.000                                                            
   RMAX   =    2.456    core radius for proj-oper                               
   RAUG   =    1.300    factor for augmentation sphere                          
   RDEP   =    2.451    radius for radial grids                                 
   RDEPT  =    1.956    core radius for aug-charge                              
                                                                                
   Atomic configuration                                                         
   11 entries                                                                   
     n  l   j            E        occ.                                          
     1  0  0.50    -18805.2457   2.0000                                         
     2  0  0.50     -2630.2869   2.0000                                         
     2  1  1.50     -2348.4046   6.0000                                         
     3  0  0.50      -438.8757   2.0000                                         
     3  1  1.50      -346.7588   6.0000                                         
     3  2  2.50      -196.2560  10.0000                                         
     4  0  0.50       -58.3859   2.0000                                         
     5  0  0.50        -3.9816   1.0000                                         
     4  1  1.50       -34.5141   6.0000                                         
     4  2  2.50        -3.0408   4.0000                                         
     4  3  2.50        -1.3606   0.0000                                         
   Description                                                                  
     l       E           TYP  RCUT    TYP  RCUT                                 
     0    -58.3859094     23  2.200                                             
     0     -3.9816262     23  2.200                                             
     1    -34.5140738     23  2.200                                             
     1     13.6058260     23  2.200                                             
     2     -3.0408010     23  2.200                                             
     2     -0.1283038     23  2.200                                             
     3     -1.3605826     23  2.400                                             
  local pseudopotential read in
  partial core-charges read in
  partial kinetic energy density read in
  atomic valenz-charges read in
  non local Contribution for L=           0  read in
    real space projection operators read in
  non local Contribution for L=           0  read in
    real space projection operators read in
  non local Contribution for L=           1  read in
    real space projection operators read in
  non local Contribution for L=           1  read in
    real space projection operators read in
  non local Contribution for L=           2  read in
    real space projection operators read in
  non local Contribution for L=           2  read in
    real space projection operators read in
    PAW grid and wavefunctions read in
 
   number of l-projection  operators is LMAX  =           6
   number of lm-projection operators is LMMAX =          18
 
 POTCAR:    PAW_PBE Ta 17Jan2003                  
   VRHFIN =Ta:  6s5d                                                            
   LEXCH  = PE                                                                  
   EATOM  =   130.6506 eV,    9.6025 Ry                                         
                                                                                
   TITEL  = PAW_PBE Ta 17Jan2003                                                
   LULTRA =        F    use ultrasoft PP ?                                      
   IUNSCR =        1    unscreen: 0-lin 1-nonlin 2-no                           
   RPACOR =    2.330    partial core radius                                     
   POMASS =  180.948; ZVAL   =    5.000    mass and valenz                      
   RCORE  =    2.900    outmost cutoff radius                                   
   RWIGS  =    2.840; RWIGS  =    1.503    wigner-seitz radius (au A)           
   ENMAX  =  223.667; ENMIN  =  167.750 eV                                      
   RCLOC  =    2.205    cutoff for local pot                                    
   LCOR   =        T    correct aug charges                                     
   LPAW   =        T    paw PP                                                  
   EAUG   =  332.075                                                            
   DEXC   =    0.000                                                            
   RMAX   =    2.970    core radius for proj-oper                               
   RAUG   =    1.300    factor for augmentation sphere                          
   RDEP   =    3.060    radius for radial grids                                 
   RDEPT  =    2.354    core radius for aug-charge                              
                                                                                
   Atomic configuration                                                         
   16 entries                                                                   
     n  l   j            E        occ.                                          
     1  0  0.50    -67341.2807   2.0000                                         
     2  0  0.50    -11566.9376   2.0000                                         
     2  1  1.50    -10134.1182   6.0000                                         
     3  0  0.50     -2648.5620   2.0000                                         
     3  1  1.50     -2222.6012   6.0000                                         
     3  2  2.50     -1726.3120  10.0000                                         
     4  0  0.50      -538.6961   2.0000                                         
     4  1  1.50      -399.0129   6.0000                                         
     4  2  2.50      -220.3959  10.0000                                         
     4  3  3.50       -23.0374  14.0000                                         
     5  0  0.50       -71.2901   2.0000                                         
     5  1  1.50       -37.8225   6.0000                                         
     5  2  2.50        -2.6455   4.0000                                         
     6  0  0.50        -4.9623   1.0000                                         
     6  1  1.50        -1.3606   0.0000                                         
     5  3  2.50        -1.3606   0.0000                                         
   Description                                                                  
     l       E           TYP  RCUT    TYP  RCUT                                 
     2     -2.6455043     23  2.500                                             
     2     -0.6258895     23  2.500                                             
     0     -4.9622780     23  2.500                                             
     0      4.7531321     23  2.500                                             
     1     -1.3605826     23  2.900                                             
     1     27.2116520     23  2.900                                             
  local pseudopotential read in
  partial core-charges read in
  partial kinetic energy density read in
  atomic valenz-charges read in
  non local Contribution for L=           2  read in
    real space projection operators read in
  non local Contribution for L=           2  read in
    real space projection operators read in
  non local Contribution for L=           0  read in
    real space projection operators read in
  non local Contribution for L=           0  read in
    real space projection operators read in
  non local Contribution for L=           1  read in
    real space projection operators read in
  non local Contribution for L=           1  read in
    real space projection operators read in
    PAW grid and wavefunctions read in
 
   number of l-projection  operators is LMAX  =           6
   number of lm-projection operators is LMMAX =          18
 
 POTCAR:    PAW_PBE Ti 08Apr2002                  
   VRHFIN =Ti: d3 s1                                                            
   LEXCH  = PE                                                                  
   EATOM  =    94.7928 eV,    6.9671 Ry                                         
                                                                                
   TITEL  = PAW_PBE Ti 08Apr2002                                                
   LULTRA =        F    use ultrasoft PP ?                                      
   IUNSCR =        1    unscreen: 0-lin 1-nonlin 2-no                           
   RPACOR =    2.200    partial core radius                                     
   POMASS =   47.880; ZVAL   =    4.000    mass and valenz                      
   RCORE  =    2.800    outmost cutoff radius                                   
   RWIGS  =    2.500; RWIGS  =    1.323    wigner-seitz radius (au A)           
   ENMAX  =  178.330; ENMIN  =  133.747 eV                                      
   RCLOC  =    2.215    cutoff for local pot                                    
   LCOR   =        T    correct aug charges                                     
   LPAW   =        T    paw PP                                                  
   EAUG   =  328.883                                                            
   DEXC   =    0.000                                                            
   RMAX   =    2.868    core radius for proj-oper                               
   RAUG   =    1.300    factor for augmentation sphere                          
   RDEP   =    2.885    radius for radial grids                                 
   RDEPT  =    2.320    core radius for aug-charge                              
                                                                                
   Atomic configuration                                                         
    9 entries                                                                   
     n  l   j            E        occ.                                          
     1  0  0.50     -4865.3608   2.0000                                         
     2  0  0.50      -533.1367   2.0000                                         
     2  1  1.50      -440.5031   6.0000                                         
     3  0  0.50       -59.3186   2.0000                                         
     3  1  1.50       -35.7012   6.0000                                         
     3  2  2.50        -1.9157   3.0000                                         
     4  0  0.50        -3.7291   1.0000                                         
     4  1  1.50        -4.0817   0.0000                                         
     4  3  2.50        -1.3606   0.0000                                         
   Description                                                                  
     l       E           TYP  RCUT    TYP  RCUT                                 
     2     -1.9156924     23  2.800                                             
     2     -0.4062961     23  2.800                                             
     0     -3.7290832     23  2.800                                             
     0     20.4087390     23  2.800                                             
     1     -5.4423304     23  2.800                                             
  local pseudopotential read in
  partial core-charges read in
  partial kinetic energy density read in
  atomic valenz-charges read in
  non local Contribution for L=           2  read in
    real space projection operators read in
  non local Contribution for L=           2  read in
    real space projection operators read in
  non local Contribution for L=           0  read in
    real space projection operators read in
  non local Contribution for L=           0  read in
    real space projection operators read in
  non local Contribution for L=           1  read in
    real space projection operators read in
    PAW grid and wavefunctions read in
 
   number of l-projection  operators is LMAX  =           5
   number of lm-projection operators is LMMAX =          15
 
 POTCAR:   PAW_PBE Zr 08Apr2002                   
   VRHFIN =Zr: 5s4d5p                                                           
   LEXCH  = PE                                                                  
   EATOM  =    77.8472 eV,    5.7216 Ry                                         
                                                                                
   TITEL  = PAW_PBE Zr 08Apr2002                                                
   LULTRA =        F    use ultrasoft PP ?                                      
   IUNSCR =        1    unscreen: 0-lin 1-nonlin 2-no                           
   RPACOR =    2.200    partial core radius                                     
   POMASS =   91.224; ZVAL   =    4.000    mass and valenz                      
   RCORE  =    3.000    outmost cutoff radius                                   
   RWIGS  =    3.070; RWIGS  =    1.625    wigner-seitz radius (au A)           
   ENMAX  =  154.632; ENMIN  =  115.974 eV                                      
   RCLOC  =    2.213    cutoff for local pot                                    
   LCOR   =        T    correct aug charges                                     
   LPAW   =        T    paw PP                                                  
   EAUG   =  243.217                                                            
   DEXC   =    -.082                                                            
   RMAX   =    3.708    core radius for proj-oper                               
   RAUG   =    1.300    factor for augmentation sphere                          
   RDEP   =    3.146    radius for radial grids                                 
   QCUT   =   -3.371; QGAM   =    6.742    optimization parameters              
                                                                                
   Description                                                                  
     l     E      TYP  RCUT    TYP  RCUT                                        
     2   .000     23  3.000                                                     
     2   .000     23  3.000                                                     
     0   .000     23  3.000                                                     
     0  2.000     23  3.000                                                     
     1  -.400     23  3.000                                                     
     3   .000      7   .000                                                     
  local pseudopotential read in
  partial core-charges read in
  atomic valenz-charges read in
  non local Contribution for L=           2  read in
    real space projection operators read in
  non local Contribution for L=           2  read in
    real space projection operators read in
  non local Contribution for L=           0  read in
    real space projection operators read in
  non local Contribution for L=           0  read in
    real space projection operators read in
  non local Contribution for L=           1  read in
    real space projection operators read in
    PAW grid and wavefunctions read in
 
   number of l-projection  operators is LMAX  =           5
   number of lm-projection operators is LMMAX =          15
 
 POTCAR:    PAW_PBE O 08Apr2002                   
   VRHFIN =O: s2p4                                                              
   LEXCH  = PE                                                                  
   EATOM  =   432.3788 eV,   31.7789 Ry                                         
                                                                                
   TITEL  = PAW_PBE O 08Apr2002                                                 
   LULTRA =        F    use ultrasoft PP ?                                      
   IUNSCR =        1    unscreen: 0-lin 1-nonlin 2-no                           
   RPACOR =    1.200    partial core radius                                     
   POMASS =   16.000; ZVAL   =    6.000    mass and valenz                      
   RCORE  =    1.520    outmost cutoff radius                                   
   RWIGS  =    1.550; RWIGS  =    0.820    wigner-seitz radius (au A)           
   ENMAX  =  400.000; ENMIN  =  300.000 eV                                      
   ICORE  =        2    local potential                                         
   LCOR   =        T    correct aug charges                                     
   LPAW   =        T    paw PP                                                  
   EAUG   =  605.392                                                            
   DEXC   =    0.000                                                            
   RMAX   =    1.553    core radius for proj-oper                               
   RAUG   =    1.300    factor for augmentation sphere                          
   RDEP   =    1.550    radius for radial grids                                 
   RDEPT  =    1.329    core radius for aug-charge                              
                                                                                
   Atomic configuration                                                         
    4 entries                                                                   
     n  l   j            E        occ.                                          
     1  0  0.50      -514.6923   2.0000                                         
     2  0  0.50       -23.9615   2.0000                                         
     2  1  0.50        -9.0305   4.0000                                         
     3  2  1.50        -9.5241   0.0000                                         
   Description                                                                  
     l       E           TYP  RCUT    TYP  RCUT                                 
     0    -23.9615318     23  1.200                                             
     0     -9.5240782     23  1.200                                             
     1     -9.0304911     23  1.520                                             
     1      8.1634956     23  1.520                                             
     2     -9.5240782      7  1.500                                             
  local pseudopotential read in
  partial core-charges read in
  partial kinetic energy density read in
  kinetic energy density of atom read in
  atomic valenz-charges read in
  non local Contribution for L=           0  read in
    real space projection operators read in
  non local Contribution for L=           0  read in
    real space projection operators read in
  non local Contribution for L=           1  read in
    real space projection operators read in
  non local Contribution for L=           1  read in
    real space projection operators read in
    PAW grid and wavefunctions read in
 
   number of l-projection  operators is LMAX  =           4
   number of lm-projection operators is LMMAX =           8
 

 ----------------------------------------------------------------------------- 
|                                                                             |
|  ADVICE TO THIS USER RUNNING 'VASP/VAMP'   (HEAR YOUR MASTER'S VOICE ...):  |
|                                                                             |
|      You have a (more or less) 'large supercell' and for larger cells       |
|      it might be more efficient to use real space projection opertators     |
|      So try LREAL= Auto  in the INCAR   file.                               |
|      Mind: At the moment your POTCAR file does not contain real space       |
|       projectors, and has to be modified,  BUT if you                       |
|      want to do an extremely  accurate calculation you might also keep the  |
|      reciprocal projection scheme          (i.e. LREAL=.FALSE.)             |
|                                                                             |
 ----------------------------------------------------------------------------- 

 WARNING: PSMAXN for non-local potential too small
          PSMAXN should be >   12.5490833729506       NTYP=           5
  PAW_PBE Al 04Jan2001                  :
 energy of atom  1       EATOM=  -53.5387
 kinetic energy error for atom=    0.0002 (will be added to EATOM!!)
  PAW_PBE Nb_sv 25May2007               :
 energy of atom  2       EATOM=-1555.1913
 kinetic energy error for atom=    0.0037 (will be added to EATOM!!)
  PAW_PBE Ta 17Jan2003                  :
 energy of atom  3       EATOM= -130.6506
 kinetic energy error for atom=    0.0004 (will be added to EATOM!!)
  PAW_PBE Ti 08Apr2002                  :
 energy of atom  4       EATOM=  -94.7928
 kinetic energy error for atom=    0.0001 (will be added to EATOM!!)
 PAW_PBE Zr 08Apr2002                   :
 energy of atom  5       EATOM=  -77.8472
 kinetic energy error for atom=    0.0001 (will be added to EATOM!!)
  PAW_PBE O 08Apr2002                   :
 energy of atom  6       EATOM= -432.3788
 kinetic energy error for atom=    0.0168 (will be added to EATOM!!)
 
 
 POSCAR: Al Nb Ta Ti Zr                          
  positions in direct lattice
  velocities in cartesian coordinates
 exchange correlation table for  LEXCH =        8
   RHO(1)=    0.500       N(1)  =     2000
   RHO(2)=  100.500       N(2)  =     4000
 


--------------------------------------------------------------------------------------------------------


 ion  position               nearest neighbor table
   1  0.623  0.867  0.376-  34 2.83  25 2.88  24 2.88   9 2.88  13 2.90   4 2.91  61 2.93  15 3.16
                            41 3.35  17 3.40
   2  0.622  0.372  0.545-  86 1.93  31 2.71  23 2.80  33 2.82   7 2.83  62 2.84  10 2.87  26 2.93
                            16 3.01  17 3.27  42 3.29  18 3.33
   3  0.588  0.646  0.640-  75 1.77  78 1.82  79 1.83  86 1.85  85 2.09  32 2.74   8 2.76  26 2.85
                            23 2.92  45 3.01  33 3.12
   4  0.618  0.084  0.450-  31 2.80  24 2.86  34 2.87  13 2.88   1 2.91  25 2.92   7 2.92  62 3.02
                            10 3.09  28 3.16  46 3.24
   5  0.974  0.644  0.547-  82 2.12  30 2.67  27 2.80  63 2.89  42 2.90  52 2.98  47 3.02  56 3.03
                            57 3.16  59 3.28  54 3.52
   6  0.980  0.121  0.378-  29 2.80  28 2.80  53 2.91  41 2.96  51 3.05  55 3.05  60 3.08  57 3.37

   7  0.729  0.343  0.458-  28 2.77   2 2.83  29 2.83  31 2.85  17 2.89  11 2.90   4 2.92  63 3.07
                            62 3.16  42 3.22
   8  0.724  0.857  0.638-  71 2.04  78 2.04  77 2.07  79 2.13   3 2.76  27 2.80  12 2.89  32 2.91
                            30 2.94  18 3.02  64 3.25
   9  0.517  0.608  0.367-  35 2.84  15 2.85  17 2.87   1 2.88  11 2.89  61 2.95  43 3.10
  10  0.513  0.116  0.548-  16 2.64  12 2.79   2 2.87  18 2.94  36 2.96  62 3.02  44 3.04   4 3.09
                            46 3.10
  11  0.618  0.343  0.369-  24 2.75  34 2.83  31 2.87   9 2.89   7 2.90  61 2.96  43 3.27
  12  0.619  0.867  0.548-  85 2.50  23 2.75  10 2.79  62 2.88   8 2.89  13 2.93  32 2.98  25 3.02
                            33 3.05  44 3.30
  13  0.742  0.843  0.462-  17 2.87   4 2.88  30 2.90   1 2.90  12 2.93  28 2.94  63 2.98  41 3.05
                            57 3.27  62 3.46
  14  0.753  0.401  0.640-  76 1.99  74 2.04  79 2.27  42 2.82  27 2.89  64 2.99  58 2.99  18 3.00

  15  0.394  0.847  0.369-  22 2.68  19 2.76  25 2.83  34 2.84   9 2.85  39 2.98   1 3.16  46 3.43

  16  0.405  0.343  0.538-  84 2.15  87 2.25  10 2.64  31 2.68  26 2.78  33 2.79  21 2.86  20 2.91
                            37 2.92  40 2.92   2 3.01  46 3.24
  17  0.619  0.602  0.458-  33 2.80  25 2.81  31 2.85   9 2.87  13 2.87   7 2.89  61 2.95  35 3.03
                            23 3.13   2 3.27   1 3.40  63 3.44
  18  0.631  0.142  0.635-  72 2.03  74 2.04  71 2.08  32 2.69  62 2.93  10 2.94  14 3.00   8 3.02
                            26 3.03  64 3.19  36 3.19   2 3.33
  19  0.279  0.834  0.451-  15 2.76  35 2.94  44 2.95  46 2.96  39 2.97  25 2.99  60 3.07  51 3.08
                            47 3.12  56 3.25
  20  0.275  0.366  0.621-  70 2.04  69 2.10  67 2.16  87 2.22  84 2.23  16 2.91  36 2.94  26 2.98
                            21 3.01  59 3.06  40 3.07  48 3.13  52 3.15  45 3.35
  21  0.278  0.580  0.542-  84 2.10  87 2.11  82 2.11  80 2.12  16 2.86  37 2.98  20 3.01  35 3.01
                            33 3.02  44 3.05  59 3.07  47 3.09  52 3.14  56 3.20  45 3.38
  22  0.283  0.077  0.361-  15 2.68  46 2.97  43 2.97  34 2.99  51 3.02  55 3.10  60 3.10
  23  0.721  0.623  0.558-  79 2.16  86 2.21  12 2.75   2 2.80  30 2.86  27 2.92   3 2.92  42 2.93
                            17 3.13  33 3.16  63 3.45
  24  0.740  0.115  0.366-  29 2.73  11 2.75  28 2.85   4 2.86   1 2.88  41 3.00
  25  0.496  0.836  0.458-  35 2.78  17 2.81  15 2.83   1 2.88  44 2.90   4 2.92  19 2.99  46 2.99
                            12 3.02  33 3.14
  26  0.491  0.385  0.628-  70 1.94  74 1.97  75 2.13  87 2.18  86 2.19  16 2.78  36 2.84   3 2.85
                             2 2.93  20 2.98  18 3.03  45 3.30
  27  0.869  0.653  0.633-  76 2.04  79 2.06  68 2.07  77 2.07  58 2.72   8 2.80   5 2.80  14 2.89
                            23 2.92  30 3.00  54 3.01  42 3.35
  28  0.847  0.110  0.455-   7 2.77   6 2.80  24 2.85  57 2.90  62 2.90  13 2.94  53 2.98  29 3.15
                            50 3.15   4 3.16  41 3.36
  29  0.852  0.349  0.376-  24 2.73   6 2.80   7 2.83  53 2.94  61 2.98  49 3.07  28 3.15  63 3.25

  30  0.850  0.858  0.552-  83 2.02  77 2.40   5 2.67  23 2.86  13 2.90   8 2.94  57 2.99  27 3.00
                            62 3.01  50 3.13
  31  0.522  0.339  0.461-  16 2.68   2 2.71   4 2.80  17 2.85   7 2.85  35 2.86  11 2.87  46 2.95
                            43 3.11
  32  0.517  0.914  0.641-  78 1.92  72 1.95  85 2.05  65 2.06  36 2.55  18 2.69   3 2.74   8 2.91
                            12 2.98  45 3.04  44 3.31
  33  0.496  0.603  0.538-  86 2.06  85 2.14  87 2.32  35 2.74  16 2.79  17 2.80   2 2.82  44 2.97
                            21 3.02  12 3.05   3 3.12  25 3.14  23 3.16
  34  0.499  0.102  0.365-  11 2.83   1 2.83  15 2.84   4 2.87  43 2.91  46 2.98  22 2.99
  35  0.400  0.580  0.451-  33 2.74  25 2.78   9 2.84  31 2.86  37 2.88  39 2.93  19 2.94  21 3.01
                            17 3.03  43 3.08
  36  0.400  0.121  0.639-  70 2.00  72 2.01  67 2.05  65 2.20  32 2.55  26 2.84  20 2.94  38 2.94
                            10 2.96  18 3.19  40 3.23
  37  0.255  0.366  0.464-  84 2.15  35 2.88  16 2.92  21 2.98  47 3.02  60 3.04  43 3.05  55 3.08
                            46 3.08  40 3.22  52 3.29  39 3.39
  38  0.232  0.930  0.635-  73 1.94  65 2.05  67 2.08  80 2.19  56 2.86  54 2.89  48 2.92  36 2.94
                            40 3.10  45 3.11  59 3.18  44 3.28
  39  0.252  0.614  0.376-  35 2.93  19 2.97  15 2.98  47 3.07  43 3.07  51 3.07  55 3.08  37 3.39
                            49 3.53
  40  0.254  0.129  0.547-  84 2.25  67 2.41  16 2.92  60 3.07  20 3.07  44 3.07  56 3.09  38 3.10
                            46 3.10  37 3.22  36 3.23  48 3.29  52 3.30  50 3.52
  41  0.865  0.859  0.370-   6 2.96  24 3.00  61 3.05  13 3.05  57 3.06  49 3.12   1 3.35  28 3.36
                            51 3.49  63 3.53
  42  0.860  0.391  0.553-  81 2.29  14 2.82   5 2.90  23 2.93  62 3.15  58 3.22   7 3.22  52 3.24
                            63 3.26   2 3.29  27 3.35  50 3.39  53 3.43  64 3.53
  43  0.381  0.352  0.373-  34 2.91  22 2.97  37 3.05  39 3.07  35 3.08   9 3.10  31 3.11  55 3.26
                            11 3.27  46 3.29
  44  0.379  0.863  0.545-  80 2.33  85 2.33  25 2.90  19 2.95  33 2.97  10 3.04  21 3.05  40 3.07
                            38 3.28  56 3.28  12 3.30  32 3.31  46 3.37  45 3.40
  45  0.371  0.678  0.650-  75 2.04  69 2.05  65 2.17  80 2.20  87 2.22  85 2.30   3 3.01  32 3.04
                            38 3.11  59 3.22  26 3.30  20 3.35  21 3.38  44 3.40
  46  0.384  0.104  0.456-  31 2.95  19 2.96  22 2.97  34 2.98  25 2.99  37 3.08  10 3.10  40 3.10
                             4 3.24  16 3.24  60 3.27  43 3.29  44 3.37  15 3.43
  47  0.117  0.611  0.465-  82 2.28   5 3.02  37 3.02  39 3.07  21 3.09  19 3.12  53 3.14  49 3.15
                            57 3.17  56 3.23  52 3.24  63 3.42  51 3.52  55 3.80
  48  0.098  0.166  0.636-  66 2.12  67 2.13  81 2.25  38 2.92  58 3.02  54 3.05  50 3.06  20 3.13
                            52 3.15  64 3.27  40 3.29
  49  0.996  0.593  0.368-  63 3.05  29 3.07  41 3.12  47 3.15  51 3.16  55 3.23  53 3.44  39 3.53
                            61 3.65  57 3.82
  50  0.999  0.102  0.540-  83 2.10  81 2.22  57 2.99  52 3.04  48 3.06  56 3.10  30 3.13  28 3.15
                            60 3.19  53 3.24  42 3.39  64 3.47  40 3.52  62 3.70  54 3.72
  51  0.119  0.872  0.375-  60 3.00  22 3.02   6 3.05  39 3.07  19 3.08  57 3.16  49 3.16  41 3.49
                            47 3.52
  52  0.095  0.387  0.552-  84 2.16  81 2.18  82 2.25   5 2.98  50 3.04  53 3.07  21 3.14  48 3.15
                            20 3.15  59 3.19  42 3.24  47 3.24  37 3.29  40 3.30  58 3.38
  53  1.000  0.331  0.453-   6 2.91  29 2.94  28 2.98  60 3.06  52 3.07  63 3.08  55 3.09  47 3.14
                            50 3.24  42 3.43  49 3.44
  54  0.029  0.864  0.645-  77 2.14  73 2.15  68 2.25  59 2.84  38 2.89  27 3.01  48 3.05  56 3.15
                            64 3.43   5 3.52  50 3.72
  55  0.145  0.332  0.368-   6 3.05  37 3.08  39 3.08  53 3.09  22 3.10  49 3.23  60 3.24  43 3.26
                            47 3.80
  56  0.141  0.850  0.546-  82 2.25  80 2.41  38 2.86   5 3.03  40 3.09  50 3.10  54 3.15  59 3.17
                            57 3.17  21 3.20  47 3.23  19 3.25  44 3.28  60 3.50
  57  0.979  0.876  0.465-  28 2.90  30 2.99  50 2.99  41 3.06  63 3.11  60 3.13  51 3.16   5 3.16
                            47 3.17  56 3.17  13 3.27   6 3.37  49 3.82
  58  0.968  0.415  0.656-  76 2.07  66 2.11  68 2.21  81 2.23  27 2.72  14 2.99  48 3.02  64 3.09
                            42 3.22  59 3.22  52 3.38
  59  0.144  0.623  0.629-  69 2.14  68 2.16  73 2.18  82 2.30  80 2.30  54 2.84  20 3.06  21 3.07
                            56 3.17  38 3.18  52 3.19  45 3.22  58 3.22   5 3.28
  60  0.147  0.092  0.451-  51 3.00  37 3.04  53 3.06  40 3.07  19 3.07   6 3.08  22 3.10  57 3.13
                            50 3.19  55 3.24  46 3.27  56 3.50
  61  0.731  0.606  0.367-   1 2.93  17 2.95   9 2.95  11 2.96  29 2.98  41 3.05  63 3.17  49 3.65

  62  0.732  0.120  0.542-  83 2.10   2 2.84  12 2.88  28 2.90  18 2.93  30 3.01   4 3.02  10 3.02
                            42 3.15   7 3.16  64 3.35  13 3.46  50 3.70
  63  0.869  0.592  0.458-   5 2.89  13 2.98  49 3.05   7 3.07  53 3.08  57 3.11  61 3.17  29 3.25
                            42 3.26  47 3.42  17 3.44  23 3.45  41 3.53
  64  0.862  0.132  0.644-  71 2.11  83 2.11  66 2.16  77 2.53  81 2.59  14 2.99  58 3.09  18 3.19
                             8 3.25  48 3.27  62 3.35  54 3.43  50 3.47  42 3.53
  65  0.372  0.903  0.659-  38 2.05  32 2.06  45 2.17  36 2.20
  66  0.983  0.212  0.685-  58 2.11  48 2.12  64 2.16
  67  0.252  0.145  0.634-  36 2.05  38 2.08  48 2.13  20 2.16  40 2.41
  68  0.005  0.639  0.665-  27 2.07  59 2.16  58 2.21  54 2.25
  69  0.265  0.538  0.668-  45 2.05  20 2.10  59 2.14
  70  0.386  0.313  0.667-  26 1.94  36 2.00  20 2.04
  71  0.738  0.039  0.675-   8 2.04  18 2.08  64 2.11
  72  0.519  0.087  0.679-  32 1.95  36 2.01  18 2.03
  73  0.164  0.801  0.677-  38 1.94  54 2.15  59 2.18
  74  0.616  0.343  0.659-  26 1.97  18 2.04  14 2.04
  75  0.490  0.568  0.672-   3 1.77  45 2.04  26 2.13
  76  0.844  0.503  0.684-  14 1.99  27 2.04  58 2.07
  77  0.874  0.869  0.638-   8 2.07  27 2.07  54 2.14  30 2.40  64 2.53
  78  0.605  0.800  0.678-   3 1.82  32 1.92   8 2.04
  79  0.720  0.634  0.636-   3 1.83  27 2.06   8 2.13  23 2.16  14 2.27
  80  0.269  0.744  0.593-  21 2.12  38 2.19  45 2.20  59 2.30  44 2.33  56 2.41
  81  0.983  0.275  0.592-  52 2.18  50 2.22  58 2.23  48 2.25  42 2.29  64 2.59
  82  0.127  0.616  0.547-  21 2.11   5 2.12  52 2.25  56 2.25  47 2.28  59 2.30
  83  0.865  0.059  0.572-  30 2.02  50 2.10  62 2.10  64 2.11
  84  0.250  0.364  0.542-  21 2.10  16 2.15  37 2.15  52 2.16  20 2.23  40 2.25
  85  0.488  0.750  0.596-  32 2.05   3 2.09  33 2.14  45 2.30  44 2.33  12 2.50
  86  0.590  0.523  0.588-   3 1.85   2 1.93  33 2.06  26 2.19  23 2.21
  87  0.383  0.516  0.592-  21 2.11  26 2.18  20 2.22  45 2.22  16 2.25  33 2.32
 
  LATTYP: Found a simple orthorhombic cell.
 ALAT       =     9.5644817352
 B/A-ratio  =     1.4398428730
 C/A-ratio  =     2.8922184390
  
  Lattice vectors:
  
 A1 = (   0.0000000000,  -9.5644817352,   0.0000000000)
 A2 = ( -13.7713508606,   0.0000000000,   0.0000000000)
 A3 = (   0.0000000000,   0.0000000000, -27.6625704340)


Analysis of symmetry for initial positions (statically):
=====================================================================
 Subroutine PRICEL returns:
 Original cell was already a primitive cell.
 

 Routine SETGRP: Setting up the symmetry group for a 
 simple orthorhombic supercell.


 Subroutine GETGRP returns: Found  1 space group operations
 (whereof  1 operations were pure point group operations)
 out of a pool of  8 trial point group operations.


The static configuration has the point symmetry C_1 .


Analysis of symmetry for dynamics (positions and initial velocities):
=====================================================================
 Subroutine PRICEL returns:
 Original cell was already a primitive cell.
 

 Routine SETGRP: Setting up the symmetry group for a 
 simple orthorhombic supercell.


 Subroutine GETGRP returns: Found  1 space group operations
 (whereof  1 operations were pure point group operations)
 out of a pool of  8 trial point group operations.


The dynamic configuration has the point symmetry C_1 .


Analysis of constrained symmetry for selective dynamics:
=====================================================================
 Subroutine PRICEL returns:
 Original cell was already a primitive cell.
 

 Routine SETGRP: Setting up the symmetry group for a 
 simple orthorhombic supercell.


 Subroutine GETGRP returns: Found  1 space group operations
 (whereof  1 operations were pure point group operations)
 out of a pool of  8 trial point group operations.


The constrained configuration has the point symmetry C_1 .


 Subroutine INISYM returns: Found  1 space group operations
 (whereof  1 operations are pure point group operations),
 and found     1 'primitive' translations

 
 
 KPOINTS: k-points                                

Automatic generation of k-mesh.
Space group operators:
 irot       det(A)        alpha          n_x          n_y          n_z        tau_x        tau_y        tau_z
    1     1.000000     0.000000     1.000000     0.000000     0.000000     0.000000     0.000000     0.000000
 
 Subroutine IBZKPT returns following result:
 ===========================================
 
 Found      5 irreducible k-points:
 
 Following reciprocal coordinates:
            Coordinates               Weight
  0.000000  0.000000  0.000000      1.000000
  0.333333  0.000000  0.000000      2.000000
  0.000000  0.333333  0.000000      2.000000
  0.333333  0.333333  0.000000      2.000000
 -0.333333  0.333333  0.000000      2.000000
 
 Following cartesian coordinates:
            Coordinates               Weight
  0.000000  0.000000  0.000000      1.000000
  0.024205  0.000000  0.000000      2.000000
  0.000000  0.034851  0.000000      2.000000
  0.024205  0.034851  0.000000      2.000000
 -0.024205  0.034851  0.000000      2.000000
 


--------------------------------------------------------------------------------------------------------




 Dimension of arrays:
   k-points           NKPTS =      5   k-points in BZ     NKDIM =      5   number of bands    NBANDS=    290
   number of dos      NEDOS =    301   number of ions     NIONS =     87
   non local maximal  LDIM  =      6   non local SUM 2l+1 LMDIM =     18
   total plane-waves  NPLWV = 846720
   max r-space proj   IRMAX =      1   max aug-charges    IRDMAX=  25433
   dimension x,y,z NGX =    84 NGY =   60 NGZ =  168
   dimension x,y,z NGXF=   168 NGYF=  120 NGZF=  336
   support grid    NGXF=   168 NGYF=  120 NGZF=  336
   ions per type =               6  10   4  18  26  23
 NGX,Y,Z   is equivalent  to a cutoff of  10.14, 10.43, 10.10 a.u.
 NGXF,Y,Z  is equivalent  to a cutoff of  20.28, 20.86, 20.19 a.u.


 I would recommend the setting:
   dimension x,y,z NGX =    83 NGY =   57 NGZ =  166
 SYSTEM =  (110) surface                           
 POSCAR =  Al Nb Ta Ti Zr                          

 Startparameter for this run:
   NWRITE =      2    write-flag & timer
   PREC   = normal    normal or accurate (medium, high low for compatibility)
   ISTART =      0    job   : 0-new  1-cont  2-samecut
   ICHARG =      2    charge: 1-file 2-atom 10-const
   ISPIN  =      1    spin polarized calculation?
   LNONCOLLINEAR =      F non collinear calculations
   LSORBIT =      F    spin-orbit coupling
   INIWAV =      1    electr: 0-lowe 1-rand  2-diag
   LASPH  =      F    aspherical Exc in radial PAW
   METAGGA=      F    non-selfconsistent MetaGGA calc.

 Electronic Relaxation 1
   ENCUT  =  600.0 eV  44.10 Ry    6.64 a.u.  27.50 19.10 55.25*2*pi/ulx,y,z
   ENINI  =  600.0     initial cutoff
   ENAUG  =  605.4 eV  augmentation charge cutoff
   NELM   =     60;   NELMIN=  2; NELMDL= -5     # of ELM steps 
   EDIFF  = 0.1E-03   stopping-criterion for ELM
   LREAL  =      F    real-space projection
   NLSPLINE    = F    spline interpolate recip. space projectors
   LCOMPAT=      F    compatible to vasp.4.4
   GGA_COMPAT  = T    GGA compatible to vasp.4.4-vasp.4.6
   LMAXPAW     = -100 max onsite density
   LMAXMIX     =    2 max onsite mixed and CHGCAR
   VOSKOWN=      0    Vosko Wilk Nusair interpolation
   ROPT   =    0.00000   0.00000   0.00000   0.00000
   ROPT   =    0.00000   0.00000
 Ionic relaxation
   EDIFFG = 0.1E-02   stopping-criterion for IOM
   NSW    =      0    number of steps for IOM
   NBLOCK =      1;   KBLOCK =      1    inner block; outer block 
   IBRION =     -1    ionic relax: 0-MD 1-quasi-New 2-CG
   NFREE  =      0    steps in history (QN), initial steepest desc. (CG)
   ISIF   =      2    stress and relaxation
   IWAVPR =     10    prediction:  0-non 1-charg 2-wave 3-comb
   ISYM   =      2    0-nonsym 1-usesym 2-fastsym
   LCORR  =      T    Harris-Foulkes like correction to forces

   POTIM  = 0.1000    time-step for ionic-motion
   TEIN   =    0.0    initial temperature
   TEBEG  =    0.0;   TEEND  =   0.0 temperature during run
   SMASS  =  -3.00    Nose mass-parameter (am)
   estimated Nose-frequenzy (Omega)   =  0.10E-29 period in steps =****** mass=  -0.433E-26a.u.
   SCALEE = 1.0000    scale energy and forces
   NPACO  =    256;   APACO  = 16.0  distance and # of slots for P.C.
   PSTRESS=    0.0 pullay stress

  Mass of Ions in am
   POMASS =  26.98 92.91180.95 47.88 91.22 16.00
  Ionic Valenz
   ZVAL   =   3.00 13.00  5.00  4.00  4.00  6.00
  Atomic Wigner-Seitz radii
   RWIGS  =  -1.00 -1.00 -1.00 -1.00 -1.00 -1.00
  virtual crystal weights 
   VCA    =   1.00  1.00  1.00  1.00  1.00  1.00
   NELECT =     482.0000    total number of electrons
   NUPDOWN=      -1.0000    fix difference up-down

 DOS related values:
   EMIN   =  10.00;   EMAX   =-10.00  energy-range for DOS
   EFERMI =   0.00
   ISMEAR =     2;   SIGMA  =   0.10  broadening in eV -4-tet -1-fermi 0-gaus

 Electronic relaxation 2 (details)
   IALGO  =     68    algorithm
   LDIAG  =      T    sub-space diagonalisation (order eigenvalues)
   LSUBROT=      F    optimize rotation matrix (better conditioning)
   TURBO    =      0    0=normal 1=particle mesh
   IRESTART =      0    0=no restart 2=restart with 2 vectors
   NREBOOT  =      0    no. of reboots
   NMIN     =      0    reboot dimension
   EREF     =   0.00    reference energy to select bands
   IMIX   =      4    mixing-type and parameters
     AMIX     =   0.40;   BMIX     =  1.00
     AMIX_MAG =   1.60;   BMIX_MAG =  1.00
     AMIN     =   0.10
     WC   =   100.;   INIMIX=   1;  MIXPRE=   1;  MAXMIX= -45

 Intra band minimization:
   WEIMIN = 0.0000     energy-eigenvalue tresh-hold
   EBREAK =  0.86E-07  absolut break condition
   DEPER  =   0.30     relativ break condition  

   TIME   =   0.40     timestep for ELM

  volume/ion in A,a.u.               =      41.88       282.62
  Fermi-wavevector in a.u.,A,eV,Ry     =   0.834155  1.576325  9.467143  0.695815
  Thomas-Fermi vector in A             =   1.947500
 
 Write flags
   LWAVE  =      F    write WAVECAR
   LCHARG =      T    write CHGCAR
   LVTOT  =      F    write LOCPOT, total local potential
   LVHAR  =      F    write LOCPOT, Hartree potential only
   LELF   =      F    write electronic localiz. function (ELF)
   LORBIT =      0    0 simple, 1 ext, 2 COOP (PROOUT)


 Dipole corrections
   LMONO  =      F    monopole corrections only (constant potential shift)
   LDIPOL =      F    correct potential (dipole corrections)
   IDIPOL =      0    1-x, 2-y, 3-z, 4-all directions 
   EPSILON=  1.0000000 bulk dielectric constant

 Exchange correlation treatment:
   GGA     =    --    GGA type
   LEXCH   =     8    internal setting for exchange type
   VOSKOWN=      0    Vosko Wilk Nusair interpolation
   LHFCALC =     F    Hartree Fock is set to
   LHFONE  =     F    Hartree Fock one center treatment
   AEXX    =    0.0000 exact exchange contribution

 Linear response parameters
   LEPSILON=     F    determine dielectric tensor
   LRPA    =     F    only Hartree local field effects (RPA)
   LNABLA  =     F    use nabla operator in PAW spheres
   LVEL    =     F    velocity operator in full k-point grid
   LINTERFAST=   F  fast interpolation
   KINTER  =     0    interpolate to denser k-point grid
   CSHIFT  =0.1000    complex shift for real part using Kramers Kronig
   OMEGAMAX=  -1.0    maximum frequency
   DEG_THRESHOLD= 0.2000000E-02 threshold for treating states as degnerate
   RTIME   =    0.100 relaxation time in fs

 Orbital magnetization related:
   ORBITALMAG=     F  switch on orbital magnetization
   LCHIMAG   =     F  perturbation theory with respect to B field
   DQ        =  0.001000  dq finite difference perturbation B field



--------------------------------------------------------------------------------------------------------


 Static calculation
 charge density and potential will be updated during run
 non-spin polarized calculation
 RMM-DIIS sequential band-by-band and
  variant of blocked Davidson during initial phase
 perform sub-space diagonalisation
    before iterative eigenvector-optimisation
 modified Broyden-mixing scheme, WC =      100.0
 initial mixing is a Kerker type mixing with AMIX =  0.4000 and BMIX =      1.0000
 Hartree-type preconditioning will be used
 using additional bands           49
 reciprocal scheme for non local part
 use partial core corrections
 calculate Harris-corrections to forces 
   (improved forces if not selfconsistent)
 use gradient corrections 
 use of overlap-Matrix (Vanderbilt PP)
 Methfessel and Paxton  Order N= 2 SIGMA  =   0.10


--------------------------------------------------------------------------------------------------------


  energy-cutoff  :      600.00
  volume of cell :     3643.60
      direct lattice vectors                 reciprocal lattice vectors
    13.771350861  0.000000000  0.000000000     0.072614518  0.000000000  0.000000000
     0.000000000  9.564481735  0.000000000     0.000000000  0.104553496  0.000000000
     0.000000000  0.000000000 27.662570434     0.000000000  0.000000000  0.036149931

  length of vectors
    13.771350861  9.564481735 27.662570434     0.072614518  0.104553496  0.036149931


 
 k-points in units of 2pi/SCALE and weight: k-points                                
   0.00000000  0.00000000  0.00000000       0.111
   0.02420484  0.00000000  0.00000000       0.222
   0.00000000  0.03485117  0.00000000       0.222
   0.02420484  0.03485117  0.00000000       0.222
  -0.02420484  0.03485117  0.00000000       0.222
 
 k-points in reciprocal lattice and weights: k-points                                
   0.00000000  0.00000000  0.00000000       0.111
   0.33333333  0.00000000  0.00000000       0.222
   0.00000000  0.33333333  0.00000000       0.222
   0.33333333  0.33333333  0.00000000       0.222
  -0.33333333  0.33333333  0.00000000       0.222
 
 position of ions in fractional coordinates (direct lattice) 
   0.62276447  0.86746430  0.37590333
   0.62167034  0.37171039  0.54482370
   0.58752640  0.64613987  0.63999584
   0.61839700  0.08363760  0.44965952
   0.97403960  0.64431529  0.54676045
   0.97963780  0.12056648  0.37767599
   0.72857308  0.34338307  0.45816820
   0.72405332  0.85678992  0.63799458
   0.51739597  0.60805875  0.36719826
   0.51262677  0.11638871  0.54763419
   0.61811078  0.34297293  0.36889183
   0.61871900  0.86738677  0.54761720
   0.74231148  0.84345710  0.46199300
   0.75332860  0.40138599  0.64040231
   0.39405298  0.84738672  0.36896032
   0.40451205  0.34302013  0.53822204
   0.61928761  0.60162497  0.45752798
   0.63113412  0.14221969  0.63544003
   0.27944195  0.83362269  0.45088327
   0.27538489  0.36566012  0.62131966
   0.27768475  0.58013835  0.54157807
   0.28324246  0.07725573  0.36149931
   0.72142364  0.62325546  0.55830088
   0.74002355  0.11549973  0.36646499
   0.49591756  0.83582580  0.45790018
   0.49081307  0.38542097  0.62799451
   0.86894210  0.65250637  0.63337676
   0.84724605  0.11017048  0.45460239
   0.85243583  0.34907103  0.37639265
   0.84992873  0.85756277  0.55205074
   0.52175105  0.33942658  0.46105252
   0.51690131  0.91441630  0.64134426
   0.49596806  0.60330070  0.53778532
   0.49943882  0.10200214  0.36464270
   0.40016663  0.58028412  0.45130253
   0.39971044  0.12100114  0.63863704
   0.25505811  0.36595738  0.46399110
   0.23227569  0.93016228  0.63483743
   0.25182599  0.61397660  0.37627308
   0.25421162  0.12932366  0.54701824
   0.86539888  0.85904646  0.37036829
   0.85963026  0.39075822  0.55323122
   0.38059813  0.35186696  0.37331264
   0.37937568  0.86335315  0.54470800
   0.37097699  0.67774001  0.64960893
   0.38408008  0.10357511  0.45579618
   0.11657381  0.61110574  0.46457054
   0.09771009  0.16612048  0.63621189
   0.99629861  0.59295863  0.36811234
   0.99948127  0.10159639  0.53951847
   0.11869311  0.87196302  0.37467704
   0.09480723  0.38667312  0.55170336
   0.99977952  0.33051389  0.45306987
   0.02865419  0.86415774  0.64516021
   0.14482272  0.33176249  0.36788561
   0.14121937  0.85033471  0.54597152
   0.97888047  0.87608504  0.46520830
   0.96804729  0.41490905  0.65598912
   0.14418845  0.62284961  0.62928425
   0.14721048  0.09173214  0.45072276
   0.73135245  0.60578495  0.36679988
   0.73152558  0.12015181  0.54219275
   0.86923259  0.59196168  0.45825814
   0.86225477  0.13158648  0.64403985
   0.37184109  0.90272272  0.65898508
   0.98346479  0.21229960  0.68491764
   0.25178291  0.14541402  0.63398651
   0.00465587  0.63867553  0.66481444
   0.26488916  0.53790381  0.66820803
   0.38552114  0.31254481  0.66691961
   0.73818724  0.03946850  0.67513292
   0.51870524  0.08664975  0.67877296
   0.16427326  0.80123041  0.67713323
   0.61629005  0.34260283  0.65912391
   0.49015104  0.56791035  0.67182732
   0.84352573  0.50331405  0.68439321
   0.87399688  0.86868621  0.63800949
   0.60540973  0.79994343  0.67756315
   0.72023293  0.63402297  0.63645508
   0.26853701  0.74379065  0.59283667
   0.98275451  0.27503047  0.59206623
   0.12673512  0.61640643  0.54675137
   0.86508455  0.05917339  0.57184727
   0.24955347  0.36448560  0.54172266
   0.48838058  0.75016458  0.59581557
   0.59045539  0.52276772  0.58845572
   0.38307420  0.51602748  0.59237937
 
 position of ions in cartesian coordinates  (Angst):
   8.57630799  8.29684649 10.39845223
   8.56124037  3.55521725 15.07122394
   8.09103214  6.17999303 17.70393003
   8.51616202  0.79995025 12.43873821
  13.41384114  6.16254184 15.12479937
  13.49093588  1.15315590 10.44748880
  10.03343557  3.28428114 12.67411000
   9.97119236  8.19475153 17.64856998
   7.12524148  5.81576681 10.15764776
   7.05956313  1.11319767 15.14896927
   8.51222037  3.28035836 10.20449636
   8.52059639  8.29610492 15.14849934
  10.22263181  8.06723005 12.77991378
  10.37435250  3.83904893 17.71517395
   5.42664188  8.10481479 10.20639088
   5.57067732  3.28080976 14.88860513
   8.52842696  5.75423100 12.65640004
   8.69156942  1.36025764 17.57790467
   3.84829318  7.97316903 12.47259035
   3.79242192  3.49734957 17.18729879
   3.82409406  5.54872265 14.98144158
   3.90063135  0.73891098 10.00000000
   9.93497809  5.96111547 15.44403743
  10.19112400  1.10469510 10.13736353
   6.82945470  7.99424061 12.66669595
   6.75915894  3.68635184 17.37194240
  11.96650658  6.24088521 17.52082924
  11.66772263  1.05372358 12.57547056
  11.73919286  3.33868345 10.41198829
  11.70466675  8.20214345 15.27114261
   7.18521672  3.24643930 12.75389771
   7.11842929  8.74591804 17.74123070
   6.83015011  5.77025849 14.87652436
   6.87794726  0.97559764 10.08695433
   5.51083508  5.55011685 12.48418803
   5.50455272  1.15731324 17.66634210
   3.51249472  3.50019267 12.83518635
   3.19875006  8.89652014 17.56123505
   3.46798404  5.87236796 10.40868071
   3.50083745  1.23691383 15.13193046
  11.91771166  8.21633417 10.24533883
  11.83826988  3.73739987 15.30379747
   5.24135036  3.36542512 10.32678719
   5.22451558  8.25752544 15.06802333
   5.10885431  6.48223199 17.96985291
   5.28930157  0.99064225 12.60849381
   1.60537885  5.84490969 12.85121538
   1.34559993  1.58885632 17.59925636
  13.72037774  5.67134198 10.18293350
  13.76420727  0.97171682 14.92446777
   1.63456451  8.33987442 10.36453009
   1.30562360  3.69832801 15.26153294
  13.76831459  3.16119411 12.53307716
   0.39460686  8.26522092 17.84678985
   1.99440444  3.17313630 10.17666150
   1.94478152  8.13301084 15.10297570
  13.48050634  8.37929939 12.86885734
  13.33131890  3.96839002 18.14634516
   1.98566973  5.95723371 17.40761978
   2.02728715  0.87737042 12.46815015
  10.07171117  5.79401911 10.14662739
  10.07409537  1.14918980 14.99844524
  11.97050705  5.66180669 12.67659812
  11.87441299  1.25855645 17.81579782
   5.12075412  8.63407497 18.22922121
  13.54363865  2.03053565 18.94658258
   3.46739075  1.39080975 17.53769660
   0.06411760  6.10860041 18.39047621
   3.64788159  5.14477112 18.48435171
   5.30914692  2.98932910 18.44871064
  10.16583543  0.37749572 18.67591188
   7.14327188  0.82875997 18.77660484
   2.26226467  7.66335363 18.73124557
   8.48714653  3.27681852 18.23306154
   6.75004196  5.43176814 18.58447059
  11.61648885  4.81393803 18.93207526
  12.03611764  8.30853340 17.64898239
   8.33730985  7.65104436 18.74313827
   9.91858040  6.06410112 17.60598361
   3.69811741  7.11397204 16.39938602
  13.53385722  2.63052390 16.37807383
   1.74531381  5.89560801 15.12454820
  11.91338288  0.56596280 15.81876546
   3.43668844  3.48611584 14.98544137
   6.72566036  7.17493539 16.48179007
   8.13136836  5.00000231 16.27819783
   5.27544916  4.93553539 16.38673604
 


--------------------------------------------------------------------------------------------------------


 k-point  1 :   0.0000 0.0000 0.0000  plane waves:  121663
 k-point  2 :   0.3333 0.0000 0.0000  plane waves:  121577
 k-point  3 :   0.0000 0.3333 0.0000  plane waves:  121622
 k-point  4 :   0.3333 0.3333 0.0000  plane waves:  121647
 k-point  5 :  -0.3333 0.3333 0.0000  plane waves:  121647

 maximum and minimum number of plane-waves per node :      5107     5041

 maximum number of plane-waves:    121663
 maximum index in each direction: 
   IXMAX=   27   IYMAX=   19   IZMAX=   55
   IXMIN=  -27   IYMIN=  -19   IZMIN=  -55

 WARNING: aliasing errors must be expected set NGX to 110 to avoid them
 WARNING: aliasing errors must be expected set NGY to  78 to avoid them
 WARNING: aliasing errors must be expected set NGZ to 222 to avoid them
 aliasing errors are usually negligible using standard VASP settings
 and one can safely disregard these warnings

 parallel 3D FFT for wavefunctions:
    minimum data exchange during FFTs selected (reduces bandwidth)
 parallel 3D FFT for charge:
    minimum data exchange during FFTs selected (reduces bandwidth)


 total amount of memory used by VASP on root node   140946. kBytes
========================================================================

   base      :      30000. kBytes
   nonl-proj :      28982. kBytes
   fftplans  :       6516. kBytes
   grid      :      15878. kBytes
   one-center:         62. kBytes
   wavefun   :      59508. kBytes
 
     INWAV:  cpu time    0.0000: real time    0.0000
 Broyden mixing: mesh for mixing (old mesh)
   NGX = 55   NGY = 39   NGZ =111
  (NGX  =168   NGY  =120   NGZ  =336)
  gives a total of 238095 points

 initial charge density was supplied:
 charge density of overlapping atoms calculated
 number of electron     482.0000000 magnetization 
 keeping initial charge density in first step


--------------------------------------------------------------------------------------------------------


 Maximum index for augmentation-charges         1033 (set IRDMAX)


--------------------------------------------------------------------------------------------------------


 First call to EWALD:  gamma=   0.115
 Maximum number of real-space cells 3x 4x 2
 Maximum number of reciprocal cells 3x 2x 5

 FEWALD executed in parallel
    FEWALD:  cpu time    0.0032: real time    0.0032


----------------------------------------- Iteration    1(   1)  ---------------------------------------


    POTLOK:  cpu time    0.1079: real time    0.1079
    SETDIJ:  cpu time    0.0166: real time    0.0171
     EDDAV:  cpu time   22.9478: real time   22.9600
       DOS:  cpu time    0.0017: real time    0.0017
    --------------------------------------------
      LOOP:  cpu time   23.0767: real time   23.0927

 eigenvalue-minimisations  :  3012
 total energy-change (2. order) : 0.6386465E+04  (-0.1863739E+05)
 number of electron     482.0000000 magnetization 
 augmentation part      482.0000000 magnetization 

 Free energy of the ion-electron system (eV)
  ---------------------------------------------------
  alpha Z        PSCENC =       781.63604815
  Ewald energy   TEWEN  =    127958.07806249
  -Hartree energ DENC   =   -154990.65655294
  -exchange      EXHF   =         0.00000000
  -V(xc)+E(xc)   XCENC  =     -2443.46017914
  PAW double counting   =     27409.91909164   -23360.05473771
  entropy T*S    EENTRO =         0.00322860
  eigenvalues    EBANDS =       960.67187319
  atomic energy  EATOM  =     30070.32811011
  Solvation  Ediel_sol  =         0.00000000
  ---------------------------------------------------
  free energy    TOTEN  =      6386.46494439 eV

  energy without entropy =     6386.46171579  energy(sigma->0) =     6386.46413724


--------------------------------------------------------------------------------------------------------




----------------------------------------- Iteration    1(   2)  ---------------------------------------


     EDDAV:  cpu time   22.9352: real time   22.9352
       DOS:  cpu time    0.0018: real time    0.0018
    --------------------------------------------
      LOOP:  cpu time   22.9389: real time   22.9403

 eigenvalue-minimisations  :  3020
 total energy-change (2. order) :-0.5352629E+04  (-0.5184967E+04)
 number of electron     482.0000000 magnetization 
 augmentation part      482.0000000 magnetization 

 Free energy of the ion-electron system (eV)
  ---------------------------------------------------
  alpha Z        PSCENC =       781.63604815
  Ewald energy   TEWEN  =    127958.07806249
  -Hartree energ DENC   =   -154990.65655294
  -exchange      EXHF   =         0.00000000
  -V(xc)+E(xc)   XCENC  =     -2443.46017914
  PAW double counting   =     27409.91909164   -23360.05473771
  entropy T*S    EENTRO =        -0.00126130
  eigenvalues    EBANDS =     -4391.95222871
  atomic energy  EATOM  =     30070.32811011
  Solvation  Ediel_sol  =         0.00000000
  ---------------------------------------------------
  free energy    TOTEN  =      1033.83635259 eV

  energy without entropy =     1033.83761389  energy(sigma->0) =     1033.83666791


--------------------------------------------------------------------------------------------------------




----------------------------------------- Iteration    1(   3)  ---------------------------------------


     EDDAV:  cpu time   36.0229: real time   36.0229
       DOS:  cpu time    0.0017: real time    0.0017
    --------------------------------------------
      LOOP:  cpu time   36.0266: real time   36.0282

 eigenvalue-minimisations  :  5240
 total energy-change (2. order) :-0.1617345E+04  (-0.1566214E+04)
 number of electron     482.0000000 magnetization 
 augmentation part      482.0000000 magnetization 

 Free energy of the ion-electron system (eV)
  ---------------------------------------------------
  alpha Z        PSCENC =       781.63604815
  Ewald energy   TEWEN  =    127958.07806249
  -Hartree energ DENC   =   -154990.65655294
  -exchange      EXHF   =         0.00000000
  -V(xc)+E(xc)   XCENC  =     -2443.46017914
  PAW double counting   =     27409.91909164   -23360.05473771
  entropy T*S    EENTRO =         0.00206602
  eigenvalues    EBANDS =     -6009.30040548
  atomic energy  EATOM  =     30070.32811011
  Solvation  Ediel_sol  =         0.00000000
  ---------------------------------------------------
  free energy    TOTEN  =      -583.50849686 eV

  energy without entropy =     -583.51056288  energy(sigma->0) =     -583.50901337


--------------------------------------------------------------------------------------------------------




----------------------------------------- Iteration    1(   4)  ---------------------------------------


     EDDAV:  cpu time   30.9306: real time   30.9320
       DOS:  cpu time    0.0018: real time    0.0018
    --------------------------------------------
      LOOP:  cpu time   30.9348: real time   30.9376

 eigenvalue-minimisations  :  4376
 total energy-change (2. order) :-0.2422288E+03  (-0.2353596E+03)
 number of electron     482.0000000 magnetization 
 augmentation part      482.0000000 magnetization 

 Free energy of the ion-electron system (eV)
  ---------------------------------------------------
  alpha Z        PSCENC =       781.63604815
  Ewald energy   TEWEN  =    127958.07806249
  -Hartree energ DENC   =   -154990.65655294
  -exchange      EXHF   =         0.00000000
  -V(xc)+E(xc)   XCENC  =     -2443.46017914
  PAW double counting   =     27409.91909164   -23360.05473771
  entropy T*S    EENTRO =        -0.00310426
  eigenvalues    EBANDS =     -6251.52404679
  atomic energy  EATOM  =     30070.32811011
  Solvation  Ediel_sol  =         0.00000000
  ---------------------------------------------------
  free energy    TOTEN  =      -825.73730846 eV

  energy without entropy =     -825.73420420  energy(sigma->0) =     -825.73653239


--------------------------------------------------------------------------------------------------------




----------------------------------------- Iteration    1(   5)  ---------------------------------------


     EDDAV:  cpu time   36.2914: real time   36.2916
       DOS:  cpu time    0.0017: real time    0.0017
    CHARGE:  cpu time    0.3612: real time    0.3613
    MIXING:  cpu time    0.0065: real time    0.0073
    --------------------------------------------
      LOOP:  cpu time   36.6622: real time   36.6648

 eigenvalue-minimisations  :  5288
 total energy-change (2. order) :-0.1889796E+02  (-0.1843552E+02)
 number of electron     481.9999981 magnetization 
 augmentation part       57.6045867 magnetization 

 Broyden mixing:
  rms(total) = 0.84255E+01    rms(broyden)= 0.84253E+01
  rms(prec ) = 0.88451E+01
  weight for this iteration     100.00

 Free energy of the ion-electron system (eV)
  ---------------------------------------------------
  alpha Z        PSCENC =       781.63604815
  Ewald energy   TEWEN  =    127958.07806249
  -Hartree energ DENC   =   -154990.65655294
  -exchange      EXHF   =         0.00000000
  -V(xc)+E(xc)   XCENC  =     -2443.46017914
  PAW double counting   =     27409.91909164   -23360.05473771
  entropy T*S    EENTRO =         0.00336466
  eigenvalues    EBANDS =     -6270.42847768
  atomic energy  EATOM  =     30070.32811011
  Solvation  Ediel_sol  =         0.00000000
  ---------------------------------------------------
  free energy    TOTEN  =      -844.63527043 eV

  energy without entropy =     -844.63863509  energy(sigma->0) =     -844.63611159


--------------------------------------------------------------------------------------------------------




----------------------------------------- Iteration    1(   6)  ---------------------------------------


    POTLOK:  cpu time    0.0994: real time    0.0994
    SETDIJ:  cpu time    0.0095: real time    0.0095
    EDDIAG:  cpu time    1.4503: real time    1.4505
  RMM-DIIS:  cpu time   25.8389: real time   25.8389
    ORTHCH:  cpu time    0.3814: real time    0.3814
       DOS:  cpu time    0.0017: real time    0.0017
    CHARGE:  cpu time    0.3580: real time    0.3580
    MIXING:  cpu time    0.0049: real time    0.0051
    --------------------------------------------
      LOOP:  cpu time   28.1461: real time   28.1482

 eigenvalue-minimisations  :  4752
 total energy-change (2. order) :-0.8477411E+01  (-0.1559356E+03)
 number of electron     481.9999985 magnetization 
 augmentation part       71.8953125 magnetization 

 Broyden mixing:
  rms(total) = 0.51130E+01    rms(broyden)= 0.51127E+01
  rms(prec ) = 0.65357E+01
  weight for this iteration     100.00

 eigenvalues of (default mixing * dielectric matrix)
  average eigenvalue GAMMA=   0.7843
  0.7843

 Free energy of the ion-electron system (eV)
  ---------------------------------------------------
  alpha Z        PSCENC =       781.63604815
  Ewald energy   TEWEN  =    127958.07806249
  -Hartree energ DENC   =   -156022.80087237
  -exchange      EXHF   =         0.00000000
  -V(xc)+E(xc)   XCENC  =     -2399.53385631
  PAW double counting   =     32632.30066574   -28593.30226712
  entropy T*S    EENTRO =         0.03109246
  eigenvalues    EBANDS =     -5279.84966466
  atomic energy  EATOM  =     30070.32811011
  Solvation  Ediel_sol  =         0.00000000
  ---------------------------------------------------
  free energy    TOTEN  =      -853.11268151 eV

  energy without entropy =     -853.14377397  energy(sigma->0) =     -853.12045463


--------------------------------------------------------------------------------------------------------




----------------------------------------- Iteration    1(   7)  ---------------------------------------


    POTLOK:  cpu time    0.0963: real time    0.0963
    SETDIJ:  cpu time    0.0094: real time    0.0094
    EDDIAG:  cpu time    1.4309: real time    1.4309
  RMM-DIIS:  cpu time   22.2170: real time   22.2171
    ORTHCH:  cpu time    0.3891: real time    0.3891
       DOS:  cpu time    0.0018: real time    0.0018
    CHARGE:  cpu time    0.3690: real time    0.3690
    MIXING:  cpu time    0.0036: real time    0.0036
    --------------------------------------------
      LOOP:  cpu time   24.5189: real time   24.5207

 eigenvalue-minimisations  :  4033
 total energy-change (2. order) :-0.7194017E+01  (-0.4009258E+02)
 number of electron     481.9999991 magnetization 
 augmentation part       69.4059759 magnetization 

 Broyden mixing:
  rms(total) = 0.46196E+01    rms(broyden)= 0.46196E+01
  rms(prec ) = 0.78110E+01
  weight for this iteration     100.00

 eigenvalues of (default mixing * dielectric matrix)
  average eigenvalue GAMMA=   0.6815
  0.9995  0.3635

 Free energy of the ion-electron system (eV)
  ---------------------------------------------------
  alpha Z        PSCENC =       781.63604815
  Ewald energy   TEWEN  =    127958.07806249
  -Hartree energ DENC   =   -155232.84889045
  -exchange      EXHF   =         0.00000000
  -V(xc)+E(xc)   XCENC  =     -2405.75074558
  PAW double counting   =     33534.86708920   -29508.56357285
  entropy T*S    EENTRO =        -0.00614478
  eigenvalues    EBANDS =     -6058.04665443
  atomic energy  EATOM  =     30070.32811011
  Solvation  Ediel_sol  =         0.00000000
  ---------------------------------------------------
  free energy    TOTEN  =      -860.30669814 eV

  energy without entropy =     -860.30055336  energy(sigma->0) =     -860.30516195


--------------------------------------------------------------------------------------------------------




----------------------------------------- Iteration    1(   8)  ---------------------------------------


    POTLOK:  cpu time    0.0955: real time    0.0955
    SETDIJ:  cpu time    0.0093: real time    0.0093
    EDDIAG:  cpu time    1.4482: real time    1.4482
  RMM-DIIS:  cpu time   25.0614: real time   25.0615
    ORTHCH:  cpu time    0.3829: real time    0.3829
       DOS:  cpu time    0.0018: real time    0.0018
    CHARGE:  cpu time    0.3685: real time    0.3685
    MIXING:  cpu time    0.0038: real time    0.0038
    --------------------------------------------
      LOOP:  cpu time   27.3734: real time   27.3753

 eigenvalue-minimisations  :  4579
 total energy-change (2. order) : 0.6918399E+02  (-0.2389006E+02)
 number of electron     481.9999988 magnetization 
 augmentation part       58.4489125 magnetization 

 Broyden mixing:
  rms(total) = 0.37272E+01    rms(broyden)= 0.37272E+01
  rms(prec ) = 0.54780E+01
  weight for this iteration     100.00

 eigenvalues of (default mixing * dielectric matrix)
  average eigenvalue GAMMA=   0.6432
  1.2714  0.4160  0.2423

 Free energy of the ion-electron system (eV)
  ---------------------------------------------------
  alpha Z        PSCENC =       781.63604815
  Ewald energy   TEWEN  =    127958.07806249
  -Hartree energ DENC   =   -155732.31514771
  -exchange      EXHF   =         0.00000000
  -V(xc)+E(xc)   XCENC  =     -2407.69253981
  PAW double counting   =     34553.94629364   -30531.52057048
  entropy T*S    EENTRO =        -0.00403005
  eigenvalues    EBANDS =     -5483.57893699
  atomic energy  EATOM  =     30070.32811011
  Solvation  Ediel_sol  =         0.00000000
  ---------------------------------------------------
  free energy    TOTEN  =      -791.12271066 eV

  energy without entropy =     -791.11868061  energy(sigma->0) =     -791.12170314


--------------------------------------------------------------------------------------------------------




----------------------------------------- Iteration    1(   9)  ---------------------------------------


    POTLOK:  cpu time    0.0951: real time    0.0951
    SETDIJ:  cpu time    0.0094: real time    0.0094
    EDDIAG:  cpu time    1.4464: real time    1.4464
  RMM-DIIS:  cpu time   21.7892: real time   21.7892
    ORTHCH:  cpu time    0.3833: real time    0.3833
       DOS:  cpu time    0.0018: real time    0.0018
    CHARGE:  cpu time    0.3588: real time    0.3588
    MIXING:  cpu time    0.0039: real time    0.0039
    --------------------------------------------
      LOOP:  cpu time   24.0898: real time   24.0915

 eigenvalue-minimisations  :  3975
 total energy-change (2. order) : 0.4740551E+02  (-0.7406179E+01)
 number of electron     481.9999988 magnetization 
 augmentation part       59.6519048 magnetization 

 Broyden mixing:
  rms(total) = 0.23107E+01    rms(broyden)= 0.23107E+01
  rms(prec ) = 0.27075E+01
  weight for this iteration     100.00

 eigenvalues of (default mixing * dielectric matrix)
  average eigenvalue GAMMA=   0.7035
  1.6175  0.4939  0.4939  0.2087

 Free energy of the ion-electron system (eV)
  ---------------------------------------------------
  alpha Z        PSCENC =       781.63604815
  Ewald energy   TEWEN  =    127958.07806249
  -Hartree energ DENC   =   -155655.67993850
  -exchange      EXHF   =         0.00000000
  -V(xc)+E(xc)   XCENC  =     -2405.43435253
  PAW double counting   =     35708.52671841   -31679.45242409
  entropy T*S    EENTRO =        -0.00522066
  eigenvalues    EBANDS =     -5521.71420786
  atomic energy  EATOM  =     30070.32811011
  Solvation  Ediel_sol  =         0.00000000
  ---------------------------------------------------
  free energy    TOTEN  =      -743.71720448 eV

  energy without entropy =     -743.71198382  energy(sigma->0) =     -743.71589931


--------------------------------------------------------------------------------------------------------




----------------------------------------- Iteration    1(  10)  ---------------------------------------


    POTLOK:  cpu time    0.0955: real time    0.0955
    SETDIJ:  cpu time    0.0094: real time    0.0094
    EDDIAG:  cpu time    1.4531: real time    1.4531
  RMM-DIIS:  cpu time   22.4135: real time   22.4137
    ORTHCH:  cpu time    0.3822: real time    0.3822
       DOS:  cpu time    0.0018: real time    0.0018
    CHARGE:  cpu time    0.3579: real time    0.3579
    MIXING:  cpu time    0.0042: real time    0.0042
    --------------------------------------------
      LOOP:  cpu time   24.7196: real time   24.7216

 eigenvalue-minimisations  :  4106
 total energy-change (2. order) : 0.8301874E+01  (-0.7189874E+01)
 number of electron     481.9999989 magnetization 
 augmentation part       64.7676130 magnetization 

 Broyden mixing:
  rms(total) = 0.13693E+01    rms(broyden)= 0.13693E+01
  rms(prec ) = 0.16620E+01
  weight for this iteration     100.00

 eigenvalues of (default mixing * dielectric matrix)
  average eigenvalue GAMMA=   0.7318
  1.9288  0.6283  0.5570  0.3510  0.1940

 Free energy of the ion-electron system (eV)
  ---------------------------------------------------
  alpha Z        PSCENC =       781.63604815
  Ewald energy   TEWEN  =    127958.07806249
  -Hartree energ DENC   =   -155778.56102467
  -exchange      EXHF   =         0.00000000
  -V(xc)+E(xc)   XCENC  =     -2399.68913655
  PAW double counting   =     36833.13230845   -32795.44977497
  entropy T*S    EENTRO =         0.01482693
  eigenvalues    EBANDS =     -5404.90475015
  atomic energy  EATOM  =     30070.32811011
  Solvation  Ediel_sol  =         0.00000000
  ---------------------------------------------------
  free energy    TOTEN  =      -735.41533020 eV

  energy without entropy =     -735.43015713  energy(sigma->0) =     -735.41903693


--------------------------------------------------------------------------------------------------------




----------------------------------------- Iteration    1(  11)  ---------------------------------------


    POTLOK:  cpu time    0.0957: real time    0.0957
    SETDIJ:  cpu time    0.0092: real time    0.0092
    EDDIAG:  cpu time    1.4562: real time    1.4562
  RMM-DIIS:  cpu time   24.0477: real time   24.0478
    ORTHCH:  cpu time    0.3798: real time    0.3799
       DOS:  cpu time    0.0018: real time    0.0018
    CHARGE:  cpu time    0.3621: real time    0.3621
    MIXING:  cpu time    0.0043: real time    0.0043
    --------------------------------------------
      LOOP:  cpu time   26.3588: real time   26.3609

 eigenvalue-minimisations  :  4405
 total energy-change (2. order) : 0.1107188E+01  (-0.4211735E+01)
 number of electron     481.9999988 magnetization 
 augmentation part       64.7916458 magnetization 

 Broyden mixing:
  rms(total) = 0.11401E+01    rms(broyden)= 0.11401E+01
  rms(prec ) = 0.13710E+01
  weight for this iteration     100.00

 eigenvalues of (default mixing * dielectric matrix)
  average eigenvalue GAMMA=   0.7014
  1.9612  0.8326  0.4640  0.4640  0.1959  0.2904

 Free energy of the ion-electron system (eV)
  ---------------------------------------------------
  alpha Z        PSCENC =       781.63604815
  Ewald energy   TEWEN  =    127958.07806249
  -Hartree energ DENC   =   -155874.40460027
  -exchange      EXHF   =         0.00000000
  -V(xc)+E(xc)   XCENC  =     -2396.42313328
  PAW double counting   =     37931.93364729   -33891.29793963
  entropy T*S    EENTRO =        -0.00282176
  eigenvalues    EBANDS =     -5314.15551491
[...]
   -.287E+03 -.988E+02 -.141E+04   0.285E+03 0.100E+03 0.141E+04   0.205E+01 -.141E+01 0.142E+01   0.209E-03 0.320E-02 -.191E-02
   0.769E+02 -.164E+02 0.214E+04   -.765E+02 0.154E+02 -.213E+04   -.653E+00 0.538E+00 -.448E+01   0.151E-02 -.114E-02 0.165E-02
   0.107E+03 0.570E+02 0.189E+03   -.107E+03 -.573E+02 -.188E+03   0.403E+00 0.367E+00 -.133E+01   0.269E-02 0.338E-02 -.686E-02
   -.713E+02 0.145E+03 0.220E+04   0.720E+02 -.145E+03 -.219E+04   -.569E+00 -.387E+00 -.280E+01   -.103E-02 0.603E-02 0.504E-02
   -.623E+02 -.257E+02 0.299E+03   0.650E+02 0.265E+02 -.299E+03   -.272E+01 -.802E+00 0.562E+00   0.247E-02 0.717E-02 -.407E-02
   -.374E+03 -.549E+01 0.135E+04   0.375E+03 0.509E+01 -.135E+04   -.803E+00 0.816E+00 -.112E+01   -.231E-02 0.974E-03 -.100E-02
   -.310E+03 0.244E+03 -.133E+04   0.314E+03 -.246E+03 0.133E+04   -.345E+01 0.141E+01 0.772E+00   0.228E-03 -.488E-02 -.301E-02
   0.278E+03 -.125E+03 0.205E+04   -.278E+03 0.126E+03 -.204E+04   0.253E+00 -.440E+00 -.429E+01   0.402E-02 -.393E-02 0.103E-02
   0.169E+03 0.986E+02 0.468E+03   -.167E+03 -.101E+03 -.470E+03   -.217E+01 0.205E+01 0.189E+01   -.163E-03 -.561E-02 -.358E-02
   -.429E+02 -.110E+02 0.449E+03   0.421E+02 0.110E+02 -.450E+03   0.111E+01 -.333E-01 0.340E+00   0.839E-03 -.930E-03 -.229E-02
   -.486E+02 -.275E+02 -.497E+03   0.476E+02 0.270E+02 0.496E+03   0.103E+01 0.470E+00 0.680E+00   0.208E-02 0.645E-03 -.181E-02
   0.168E+03 -.243E+02 0.441E+03   -.166E+03 0.242E+02 -.442E+03   -.150E+01 0.353E+00 0.704E+00   0.950E-03 -.860E-04 -.781E-04
   0.229E+03 0.484E+02 -.487E+03   -.229E+03 -.475E+02 0.488E+03   -.142E+00 -.916E+00 -.114E+01   -.109E-02 0.247E-03 -.181E-02
   0.105E+03 -.727E+02 0.163E+03   -.103E+03 0.737E+02 -.165E+03   -.129E+01 -.996E+00 0.228E+01   -.435E-03 -.126E-02 -.243E-03
   0.115E+03 -.535E+02 0.624E+03   -.113E+03 0.535E+02 -.621E+03   -.808E+00 -.163E+00 -.282E+01   0.108E-02 0.409E-03 0.867E-03
   -.153E+03 0.470E+02 0.991E+02   0.154E+03 -.458E+02 -.100E+03   -.124E+01 -.111E+01 0.129E+01   0.876E-04 -.290E-03 -.632E-03
   -.987E+02 0.609E+02 0.670E+03   0.981E+02 -.605E+02 -.666E+03   0.499E+00 -.446E+00 -.270E+01   -.107E-02 0.334E-03 0.166E-02
   0.536E+02 -.301E+02 0.371E+03   -.545E+02 0.295E+02 -.371E+03   0.961E+00 0.743E+00 -.681E+00   0.849E-03 0.587E-03 -.867E-03
   0.188E+02 0.549E+02 -.414E+03   -.184E+02 -.560E+02 0.415E+03   -.371E+00 0.104E+01 -.140E+01   0.322E-03 -.392E-03 -.142E-02
   -.164E+03 0.261E+01 -.325E+03   0.164E+03 -.359E+01 0.324E+03   -.150E+00 0.981E+00 0.120E+01   0.149E-03 -.127E-04 -.217E-03
   -.148E+03 0.625E+01 0.398E+03   0.148E+03 -.635E+01 -.399E+03   0.243E+00 -.137E+00 0.256E+00   -.711E-03 0.453E-03 0.137E-02
   -.145E+03 -.505E+01 0.636E+03   0.144E+03 0.507E+01 -.632E+03   0.854E+00 -.859E-01 -.260E+01   -.962E-03 0.719E-03 0.197E-02
   -.174E+03 0.467E+02 0.883E+02   0.172E+03 -.468E+02 -.900E+02   0.171E+01 0.144E+00 0.174E+01   -.262E-03 0.913E-03 -.527E-03
   0.526E+02 0.221E+02 0.398E+03   -.526E+02 -.216E+02 -.399E+03   0.172E+00 -.123E+00 -.237E+00   0.704E-03 -.601E-03 -.535E-04
   0.828E+02 -.407E+02 -.475E+03   -.814E+02 0.420E+02 0.475E+03   -.136E+01 -.127E+01 0.448E+00   0.221E-02 -.139E-03 -.897E-03
   0.425E+02 -.276E+02 0.193E+03   -.420E+02 0.282E+02 -.195E+03   -.470E+00 -.583E+00 0.254E+01   -.979E-04 -.880E-03 -.114E-02
   0.288E+02 0.119E+01 0.652E+03   -.295E+02 -.124E+01 -.649E+03   0.546E+00 0.228E-01 -.254E+01   0.152E-03 0.213E-03 0.122E-02
   0.116E+03 -.159E+00 0.392E+03   -.115E+03 0.110E+00 -.392E+03   -.953E+00 0.677E+00 -.412E+00   0.648E-03 -.984E-03 -.104E-02
   0.927E+02 0.302E+02 -.443E+03   -.912E+02 -.287E+02 0.442E+03   -.148E+01 -.151E+01 0.137E+01   0.489E-04 0.154E-02 -.151E-02
   0.125E+03 0.206E+02 0.460E+03   -.126E+03 -.205E+02 -.462E+03   0.227E+00 -.567E+00 0.152E+01   0.534E-03 -.297E-03 0.233E-03
   0.114E+03 -.591E+02 -.383E+03   -.115E+03 0.587E+02 0.383E+03   0.137E+01 0.326E+00 0.500E+00   -.167E-02 -.195E-03 -.960E-03
   0.125E+03 0.359E+02 0.599E+03   -.125E+03 -.357E+02 -.596E+03   0.125E+00 -.520E+00 -.299E+01   0.106E-02 -.579E-03 0.481E-03
   0.141E+03 0.971E+02 0.841E+02   -.141E+03 -.980E+02 -.851E+02   0.206E-01 0.867E+00 0.101E+01   0.264E-03 0.128E-02 -.922E-03
   -.935E+02 -.143E+01 0.639E+03   0.937E+02 0.147E+01 -.635E+03   -.346E+00 -.498E-01 -.313E+01   -.736E-03 -.693E-03 0.146E-02
   -.104E+03 -.155E+02 0.800E+02   0.103E+03 0.164E+02 -.795E+02   0.587E+00 -.950E+00 -.466E+00   -.221E-03 -.933E-03 -.520E-03
   0.124E+03 0.316E+02 0.621E+03   -.123E+03 -.318E+02 -.619E+03   -.197E+00 0.375E+00 -.252E+01   0.876E-03 0.919E-03 0.914E-03
   0.134E+03 -.434E+02 0.114E+03   -.134E+03 0.444E+02 -.116E+03   -.258E+00 -.973E+00 0.198E+01   0.256E-03 0.828E-03 -.134E-02
   0.907E+02 -.454E+02 -.583E+03   -.902E+02 0.431E+02 0.581E+03   -.511E+00 0.231E+01 0.207E+01   -.407E-03 -.942E-03 -.259E-03
   0.108E+03 0.104E+02 0.413E+03   -.108E+03 -.105E+02 -.413E+03   0.331E+00 -.342E-01 -.676E+00   0.109E-02 0.100E-02 0.111E-02
   0.570E+02 -.891E+01 0.410E+03   -.569E+02 0.885E+01 -.411E+03   0.163E+00 0.278E+00 0.430E+00   -.269E-03 -.734E-03 0.344E-03
   -.887E+01 0.342E+02 -.409E+03   0.820E+01 -.352E+02 0.407E+03   0.670E+00 0.910E+00 0.148E+01   -.443E-03 0.503E-03 -.878E-03
   -.332E+02 -.134E+01 0.598E+03   0.336E+02 0.164E+01 -.595E+03   -.146E+00 -.235E+00 -.302E+01   -.716E-04 -.229E-03 0.115E-02
   -.105E+03 0.264E+02 0.138E+03   0.104E+03 -.268E+02 -.138E+03   0.230E+00 0.384E+00 0.209E+00   -.147E-03 0.395E-03 -.585E-04
   0.552E+02 -.547E+01 0.583E+03   -.552E+02 0.471E+01 -.579E+03   0.756E-01 0.245E+00 -.313E+01   -.233E-03 -.338E-03 0.910E-03
   0.742E+02 0.296E+02 0.536E+02   -.738E+02 -.301E+02 -.535E+02   -.386E+00 0.539E+00 -.795E-01   0.847E-04 -.178E-03 -.211E-03
   -.488E+02 0.150E+01 0.391E+03   0.491E+02 -.123E+01 -.391E+03   -.331E+00 0.512E+00 -.143E+00   -.543E-04 0.773E-04 0.792E-03
   -.398E+02 -.706E+02 -.428E+03   0.413E+02 0.701E+02 0.426E+03   -.149E+01 0.477E+00 0.212E+01   -.237E-03 0.247E-03 -.836E-03
   0.446E+02 0.383E+01 0.599E+03   -.439E+02 -.366E+01 -.595E+03   -.801E+00 -.334E+00 -.339E+01   0.322E-03 0.448E-03 0.123E-02
   0.755E+02 -.821E+02 0.899E+02   -.756E+02 0.831E+02 -.902E+02   0.692E-01 -.108E+01 0.361E+00   -.793E-03 -.460E-04 -.116E-03
   -.829E+02 -.108E+01 0.360E+03   0.824E+02 0.787E+00 -.360E+03   0.466E+00 -.798E-01 -.105E+01   -.709E-03 0.124E-05 0.321E-03
   -.128E+03 0.602E+01 -.497E+03   0.125E+03 -.642E+01 0.496E+03   0.285E+01 0.403E+00 0.119E+01   0.872E-04 -.455E-03 -.809E-03
   0.890E+02 0.334E+02 -.369E+03   -.884E+02 -.331E+02 0.370E+03   -.554E+00 -.317E+00 -.102E+01   -.594E-03 -.550E-03 -.782E-03
   0.567E+02 0.402E+01 0.390E+03   -.561E+02 -.417E+01 -.390E+03   -.692E+00 0.391E+00 -.405E+00   -.170E-03 0.945E-03 0.858E-03
   -.142E+03 -.441E+02 0.667E+03   0.141E+03 0.435E+02 -.663E+03   0.835E+00 0.477E-01 -.325E+01   -.153E-02 -.131E-03 0.129E-02
   -.890E+02 -.593E+02 0.899E+02   0.890E+02 0.584E+02 -.896E+02   -.136E-01 0.903E+00 -.352E+00   -.849E-03 0.470E-03 -.695E-03
   -.138E+03 0.352E+01 0.374E+03   0.137E+03 -.339E+01 -.375E+03   0.384E+00 0.315E+00 0.503E+00   -.755E-03 -.351E-03 0.489E-04
   -.110E+03 -.194E+02 -.475E+03   0.109E+03 0.205E+02 0.474E+03   0.136E+01 -.113E+01 0.126E+01   -.594E-03 0.221E-03 -.860E-03
   0.148E+03 -.288E+02 -.905E+03   -.149E+03 0.317E+02 0.915E+03   0.105E+01 -.289E+01 -.960E+01   -.115E-02 -.291E-02 0.531E-03
   -.109E+03 0.456E+02 -.101E+04   0.110E+03 -.503E+02 0.102E+04   -.105E+01 0.467E+01 -.170E+02   0.281E-03 0.525E-03 -.212E-02
   0.193E+03 0.424E+02 -.648E+03   -.193E+03 -.443E+02 0.655E+03   -.295E+00 0.190E+01 -.611E+01   -.376E-02 0.435E-02 -.228E-02
   -.974E+02 0.155E+01 -.842E+03   0.977E+02 -.313E+00 0.855E+03   -.366E+00 -.123E+01 -.125E+02   0.171E-02 0.180E-03 -.154E-02
   0.168E+03 0.259E+02 -.100E+04   -.171E+03 -.290E+02 0.102E+04   0.273E+01 0.315E+01 -.186E+02   -.706E-03 -.137E-02 -.256E-02
   0.119E+03 0.432E+02 -.104E+04   -.117E+03 -.413E+02 0.107E+04   -.146E+01 -.194E+01 -.226E+02   -.244E-02 0.275E-02 -.778E-03
   -.131E+03 -.158E+03 -.110E+04   0.132E+03 0.159E+03 0.112E+04   -.550E+00 -.354E+00 -.201E+02   -.718E-03 -.990E-03 -.318E-02
   0.662E+02 -.358E+02 -.110E+04   -.688E+02 0.406E+02 0.113E+04   0.253E+01 -.483E+01 -.226E+02   0.484E-02 0.243E-02 0.131E-02
   0.730E+02 -.528E+02 -.984E+03   -.704E+02 0.499E+02 0.100E+04   -.268E+01 0.298E+01 -.190E+02   -.276E-02 -.132E-02 -.952E-03
   0.644E+02 0.667E+02 -.965E+03   -.684E+02 -.596E+02 0.980E+03   0.398E+01 -.707E+01 -.145E+02   0.434E-02 -.148E-02 -.175E-02
   0.804E+02 0.146E+02 -.111E+04   -.830E+02 -.232E+02 0.113E+04   0.267E+01 0.864E+01 -.202E+02   0.246E-03 0.564E-03 0.105E-03
   -.196E+03 -.253E+02 -.115E+04   0.193E+03 0.313E+02 0.117E+04   0.283E+01 -.601E+01 -.207E+02   -.138E-02 -.277E-02 -.149E-02
   -.337E+03 -.388E+02 -.659E+03   0.340E+03 0.451E+02 0.662E+03   -.323E+01 -.628E+01 -.286E+01   -.116E-02 0.180E-02 -.192E-03
   0.105E+03 0.137E+02 -.120E+04   -.105E+03 -.114E+02 0.123E+04   0.612E-01 -.229E+01 -.250E+02   0.475E-02 -.890E-03 -.346E-03
   -.121E+03 0.568E+02 -.662E+03   0.125E+03 -.617E+02 0.668E+03   -.433E+01 0.496E+01 -.636E+01   -.967E-03 0.847E-03 0.184E-02
   0.155E+03 -.101E+03 -.226E+03   -.155E+03 0.101E+03 0.225E+03   0.183E+00 -.832E+00 0.172E+01   -.104E-02 -.154E-02 -.107E-02
   -.986E+02 -.435E+01 -.204E+03   0.939E+02 0.307E+01 0.204E+03   0.470E+01 0.127E+01 -.649E+00   0.240E-03 0.124E-03 -.971E-04
   0.148E+03 -.332E+02 0.118E+03   -.148E+03 0.338E+02 -.118E+03   0.676E+00 -.588E+00 -.977E-02   -.134E-02 -.376E-03 0.313E-04
   -.187E+03 -.469E+02 -.468E+02   0.188E+03 0.466E+02 0.475E+02   -.980E+00 0.234E+00 -.701E+00   -.761E-03 0.149E-02 0.495E-04
   0.315E+03 0.672E+02 0.157E+03   -.319E+03 -.690E+02 -.162E+03   0.374E+01 0.180E+01 0.474E+01   0.153E-02 -.123E-02 0.124E-03
   0.157E+03 -.394E+02 -.283E+03   -.158E+03 0.383E+02 0.279E+03   0.586E+00 0.106E+01 0.412E+01   0.325E-03 -.300E-03 -.123E-02
   -.452E+02 0.572E+02 -.164E+03   0.474E+02 -.599E+02 0.165E+03   -.215E+01 0.271E+01 -.918E+00   0.982E-03 -.271E-02 0.435E-03
   0.128E+03 -.795E+02 -.321E+03   -.124E+03 0.851E+02 0.322E+03   -.385E+01 -.560E+01 -.105E+00   -.247E-02 -.269E-02 -.771E-03
 -----------------------------------------------------------------------------------------------
   -.549E+01 0.437E+01 0.251E+03   0.796E-12 0.171E-12 0.364E-11   0.548E+01 -.437E+01 -.251E+03   0.407E-02 -.151E-02 -.322E-01
 
 
 POSITION                                       TOTAL-FORCE (eV/Angst)
 -----------------------------------------------------------------------------------
      8.57631      8.29685     10.39845        -0.048080     -0.153309      0.082175
      8.56124      3.55522     15.07122         0.001650     -0.013631      0.011957
      8.09103      6.17999     17.70393         0.001757      0.004064     -0.001874
      8.51616      0.79995     12.43874         0.060293     -0.141784      0.118059
     13.41384      6.16254     15.12480         0.002490     -0.005746      0.004609
     13.49094      1.15316     10.44749        -0.006267     -0.435940     -0.052310
     10.03344      3.28428     12.67411         0.081002      0.319102     -0.535405
      9.97119      8.19475     17.64857         0.002285     -0.002111      0.000448
      7.12524      5.81577     10.15765        -0.243895     -0.478482      0.890235
      7.05956      1.11320     15.14897         0.002912      0.000621      0.001547
      8.51222      3.28036     10.20450         0.194303      0.075759      0.763356
      8.52060      8.29610     15.14850         0.001670      0.000487     -0.002694
     10.22263      8.06723     12.77991         0.203149      0.417187      0.029406
     10.37435      3.83905     17.71517         0.002352      0.001518      0.002750
      5.42664      8.10481     10.20639         0.281994      0.138763      0.981669
      5.57068      3.28081     14.88861         0.002511     -0.001062      0.004473
      8.52843      5.75423     12.65640         0.320555     -0.053121      0.049288
      8.69157      1.36026     17.57790         0.035151     -0.021850     -0.000866
      3.84829      7.97317     12.47259        -0.355196      0.287081     -0.375783
      3.79242      3.49735     17.18730        -0.008494      0.008564      0.023459
      3.82409      5.54872     14.98144        -0.006561     -0.002820      0.004696
      3.90063      0.73891     10.00000         0.493582     -0.148201      0.222284
      9.93498      5.96112     15.44404        -0.002059      0.000775      0.011112
     10.19112      1.10470     10.13736        -0.124957      0.019528      0.511777
      6.82945      7.99424     12.66670         0.081641      0.120069     -0.413143
      6.75916      3.68635     17.37194        -0.005588     -0.001707      0.000871
     11.96651      6.24089     17.52083         0.005891     -0.000334      0.004951
     11.66772      1.05372     12.57547        -0.541667     -0.243373     -1.014299
     11.73919      3.33868     10.41199        -0.244123     -0.065180      0.630517
     11.70467      8.20214     15.27114         0.003161     -0.003170      0.006888
      7.18522      3.24644     12.75390         0.205736      0.410597     -0.732193
      7.11843      8.74592     17.74123         0.003573     -0.003940     -0.006960
      6.83015      5.77026     14.87652        -0.001409     -0.001310     -0.003341
      6.87795      0.97560     10.08695        -0.104677     -0.027276      0.159064
      5.51084      5.55012     12.48419        -0.412180      0.628096     -0.195667
      5.50455      1.15731     17.66634        -0.001951      0.007049      0.008497
      3.51249      3.50019     12.83519        -0.039064     -0.382944     -0.183557
      3.19875      8.89652     17.56124         0.004737     -0.007550      0.004144
      3.46798      5.87237     10.40868         0.016087     -0.313677     -0.180092
      3.50084      1.23691     15.13193         0.000680     -0.001760      0.002108
     11.91771      8.21633     10.24534        -0.199605     -0.011081      0.758922
     11.83827      3.73740     15.30380         0.002492      0.000909      0.001651
      5.24135      3.36543     10.32679         0.144943      0.135202      0.082267
      5.22452      8.25753     15.06802         0.001904     -0.004487     -0.000717
      5.10885      6.48223     17.96985         0.001482      0.002427      0.007005
      5.28930      0.99064     12.60849         0.254530     -0.202443     -0.450111
      1.60538      5.84491     12.85122         0.200392      0.218751     -0.831382
      1.34560      1.58886     17.59926        -0.000591     -0.000988      0.002354
     13.72038      5.67134     10.18293         0.227574      0.070527      0.537540
     13.76421      0.97172     14.92447        -0.001282      0.001010      0.003000
      1.63456      8.33987     10.36453         0.103879     -0.517679      0.117956
      1.30562      3.69833     15.26153         0.003835     -0.000316      0.000593
     13.76831      3.16119     12.53308         0.005970      0.782284     -0.376019
      0.39461      8.26522     17.84679        -0.003426     -0.000741      0.000800
      1.99440      3.17314     10.17666        -0.157559     -0.166230      0.574683
      1.94478      8.13301     15.10298         0.001859      0.001151      0.005918
     13.48051      8.37930     12.86886        -0.006517     -0.375585     -0.904461
     13.33132      3.96839     18.14635        -0.001992     -0.000149     -0.000764
      1.98567      5.95723     17.40762         0.000946     -0.002316      0.000818
      2.02729      0.87737     12.46815        -0.075556      0.249168     -0.508399
     10.07171      5.79402     10.14663         0.164731     -0.549806      0.330566
     10.07410      1.14919     14.99845         0.001816      0.002115     -0.000867
     11.97051      5.66181     12.67660        -0.557669      0.437865     -0.210938
     11.87441      1.25856     17.81580         0.001894     -0.001335      0.001195
      5.12075      8.63407     18.22922         0.005126     -0.000414      0.004140
     13.54364      2.03054     18.94658        -0.001111      0.000201      0.000322
      3.46739      1.39081     17.53770         0.006013     -0.000136      0.004306
      0.06412      6.10860     18.39048        -0.000482     -0.000996      0.002173
      3.64788      5.14477     18.48435         0.002715     -0.000773      0.005747
      5.30915      2.98933     18.44871         0.003815      0.002678     -0.001879
     10.16584      0.37750     18.67591         0.003531     -0.005332      0.000513
      7.14327      0.82876     18.77660        -0.003655     -0.001699      0.000376
      2.26226      7.66335     18.73125        -0.000237      0.000437     -0.003543
      8.48715      3.27682     18.23306        -0.001752      0.000254     -0.002729
      6.75004      5.43177     18.58447         0.007039      0.004099     -0.001585
     11.61649      4.81394     18.93208         0.001371      0.004095     -0.000124
     12.03612      8.30853     17.64898         0.003753     -0.000444      0.001224
      8.33731      7.65104     18.74314        -0.003734      0.003671     -0.007298
      9.91858      6.06410     17.60598         0.000022      0.000199      0.006679
      3.69812      7.11397     16.39939         0.003106      0.003610      0.004253
     13.53386      2.63052     16.37807         0.001982     -0.001114     -0.002237
      1.74531      5.89561     15.12455        -0.002265     -0.001031      0.001727
     11.91338      0.56596     15.81877         0.000691      0.000905      0.002574
      3.43669      3.48612     14.98544         0.000149     -0.006243     -0.001311
      6.72566      7.17494     16.48179        -0.002552     -0.000834      0.009743
      8.13137      5.00000     16.27820        -0.001490      0.000274      0.000107
      5.27545      4.93554     16.38674         0.000916      0.001355      0.003054
 -----------------------------------------------------------------------------------
    total drift:                                0.000590     -0.000663      0.001237


--------------------------------------------------------------------------------------------------------



  FREE ENERGIE OF THE ION-ELECTRON SYSTEM (eV)
  ---------------------------------------------------
  free  energy   TOTEN  =      -730.38849722 eV

  energy  without entropy=     -730.37900103  energy(sigma->0) =     -730.38612317
 


--------------------------------------------------------------------------------------------------------


    POTLOK:  cpu time    0.1127: real time    0.1130


--------------------------------------------------------------------------------------------------------


     LOOP+:  cpu time  897.3507: real time  897.4910
    4ORBIT:  cpu time    0.0000: real time    0.0000

 total amount of memory used by VASP on root node   140946. kBytes
========================================================================

   base      :      30000. kBytes
   nonl-proj :      28982. kBytes
   fftplans  :       6516. kBytes
   grid      :      15878. kBytes
   one-center:         62. kBytes
   wavefun   :      59508. kBytes
 
  
  
 General timing and accounting informations for this job:
 ========================================================
  
                  Total CPU time used (sec):      916.222
                            User time (sec):      912.727
                          System time (sec):        3.495
                         Elapsed time (sec):      916.395
  
                   Maximum memory used (kb):      176092.
                   Average memory used (kb):           0.
  
                          Minor page faults:        51684
                          Major page faults:            0
                 Voluntary context switches:         1306
