 vasp.5.4.1 05Feb16 (build Mar 19 2020 08:54:17) complex                        
  
 executed on           IFC91_ompi date 2021.11.07  09:04:43
 running on   48 total cores
 distrk:  each k-point on   48 cores,    1 groups
 distr:  one band on NCORES_PER_BAND=  24 cores,    2 groups


--------------------------------------------------------------------------------------------------------


 INCAR:
 POTCAR:    PAW_PBE Al 04Jan2001                  
 POTCAR:    PAW_PBE Nb_sv 25May2007               
 POTCAR:    PAW_PBE Ta 17Jan2003                  
 POTCAR:    PAW_PBE Ti 08Apr2002                  
 POTCAR:   PAW_PBE Zr 08Apr2002                   
 POTCAR:    PAW_PBE O 08Apr2002                   

 ----------------------------------------------------------------------------- 
|                                                                             |
|           W    W    AA    RRRRR   N    N  II  N    N   GGGG   !!!           |
|           W    W   A  A   R    R  NN   N  II  NN   N  G    G  !!!           |
|           W    W  A    A  R    R  N N  N  II  N N  N  G       !!!           |
|           W WW W  AAAAAA  RRRRR   N  N N  II  N  N N  G  GGG   !            |
|           WW  WW  A    A  R   R   N   NN  II  N   NN  G    G                |
|           W    W  A    A  R    R  N    N  II  N    N   GGGG   !!!           |
|                                                                             |
|      For optimal performance we recommend to set                            |
|        NCORE= 4 - approx SQRT( number of cores)                             |
|      NCORE specifies how many cores store one orbital (NPAR=cpu/NCORE).     |
|      This setting can  greatly improve the performance of VASP for DFT.     |
|      The default, NPAR=number of cores might be grossly inefficient         |
|      on modern multi-core architectures or massively parallel machines.     |
|      Do your own testing !!!!                                               |
|      Unfortunately you need to use the default for GW and RPA calculations. |
|      (for HF NCORE is supported but not extensively tested yet)             |
|                                                                             |
 ----------------------------------------------------------------------------- 

 POTCAR:    PAW_PBE Al 04Jan2001                  
   VRHFIN =Al: s2p1                                                             
   LEXCH  = PE                                                                  
   EATOM  =    53.5387 eV,    3.9350 Ry                                         
                                                                                
   TITEL  = PAW_PBE Al 04Jan2001                                                
   LULTRA =        F    use ultrasoft PP ?                                      
   IUNSCR =        1    unscreen: 0-lin 1-nonlin 2-no                           
   RPACOR =    1.500    partial core radius                                     
   POMASS =   26.981; ZVAL   =    3.000    mass and valenz                      
   RCORE  =    1.900    outmost cutoff radius                                   
   RWIGS  =    2.650; RWIGS  =    1.402    wigner-seitz radius (au A)           
   ENMAX  =  240.300; ENMIN  =  180.225 eV                                      
   ICORE  =        2    local potential                                         
   LCOR   =        T    correct aug charges                                     
   LPAW   =        T    paw PP                                                  
   EAUG   =  291.052                                                            
   DEXC   =    0.000                                                            
   RMAX   =    1.939    core radius for proj-oper                               
   RAUG   =    1.300    factor for augmentation sphere                          
   RDEP   =    1.966    radius for radial grids                                 
   RDEPT  =    1.856    core radius for aug-charge                              
                                                                                
   Atomic configuration                                                         
    6 entries                                                                   
     n  l   j            E        occ.                                          
     1  0  0.50     -1511.1048   2.0000                                         
     2  0  0.50      -108.1629   2.0000                                         
     2  1  1.50       -69.6402   6.0000                                         
     3  0  0.50        -7.7528   2.0000                                         
     3  1  1.50        -2.7121   1.0000                                         
     3  2  2.50        -2.7212   0.0000                                         
   Description                                                                  
     l       E           TYP  RCUT    TYP  RCUT                                 
     0     -7.7528455     23  1.900                                             
     0     -3.3096929     23  1.900                                             
     1     -2.7120682     23  1.900                                             
     1     13.6058260     23  1.900                                             
     2     -2.7211652      7  1.900                                             
  local pseudopotential read in
  partial core-charges read in
  partial kinetic energy density read in
  atomic valenz-charges read in
  non local Contribution for L=           0  read in
    real space projection operators read in
  non local Contribution for L=           0  read in
    real space projection operators read in
  non local Contribution for L=           1  read in
    real space projection operators read in
  non local Contribution for L=           1  read in
    real space projection operators read in
    PAW grid and wavefunctions read in
 
   number of l-projection  operators is LMAX  =           4
   number of lm-projection operators is LMMAX =           8
 
 POTCAR:    PAW_PBE Nb_sv 25May2007               
   VRHFIN =Nb: 4p5s4d                                                           
   LEXCH  = PE                                                                  
   EATOM  =  1555.1913 eV,  114.3033 Ry                                         
                                                                                
   TITEL  = PAW_PBE Nb_sv 25May2007                                             
   LULTRA =        F    use ultrasoft PP ?                                      
   IUNSCR =        1    unscreen: 0-lin 1-nonlin 2-no                           
   RPACOR =    1.800    partial core radius                                     
   POMASS =   92.910; ZVAL   =   13.000    mass and valenz                      
   RCORE  =    2.400    outmost cutoff radius                                   
   RWIGS  =    2.400; RWIGS  =    1.270    wigner-seitz radius (au A)           
   ENMAX  =  293.235; ENMIN  =  219.927 eV                                      
   ICORE  =        3    local potential                                         
   LCOR   =        T    correct aug charges                                     
   LPAW   =        T    paw PP                                                  
   EAUG   =  455.659                                                            
   DEXC   =    0.000                                                            
   RMAX   =    2.456    core radius for proj-oper                               
   RAUG   =    1.300    factor for augmentation sphere                          
   RDEP   =    2.451    radius for radial grids                                 
   RDEPT  =    1.956    core radius for aug-charge                              
                                                                                
   Atomic configuration                                                         
   11 entries                                                                   
     n  l   j            E        occ.                                          
     1  0  0.50    -18805.2457   2.0000                                         
     2  0  0.50     -2630.2869   2.0000                                         
     2  1  1.50     -2348.4046   6.0000                                         
     3  0  0.50      -438.8757   2.0000                                         
     3  1  1.50      -346.7588   6.0000                                         
     3  2  2.50      -196.2560  10.0000                                         
     4  0  0.50       -58.3859   2.0000                                         
     5  0  0.50        -3.9816   1.0000                                         
     4  1  1.50       -34.5141   6.0000                                         
     4  2  2.50        -3.0408   4.0000                                         
     4  3  2.50        -1.3606   0.0000                                         
   Description                                                                  
     l       E           TYP  RCUT    TYP  RCUT                                 
     0    -58.3859094     23  2.200                                             
     0     -3.9816262     23  2.200                                             
     1    -34.5140738     23  2.200                                             
     1     13.6058260     23  2.200                                             
     2     -3.0408010     23  2.200                                             
     2     -0.1283038     23  2.200                                             
     3     -1.3605826     23  2.400                                             
  local pseudopotential read in
  partial core-charges read in
  partial kinetic energy density read in
  atomic valenz-charges read in
  non local Contribution for L=           0  read in
    real space projection operators read in
  non local Contribution for L=           0  read in
    real space projection operators read in
  non local Contribution for L=           1  read in
    real space projection operators read in
  non local Contribution for L=           1  read in
    real space projection operators read in
  non local Contribution for L=           2  read in
    real space projection operators read in
  non local Contribution for L=           2  read in
    real space projection operators read in
    PAW grid and wavefunctions read in
 
   number of l-projection  operators is LMAX  =           6
   number of lm-projection operators is LMMAX =          18
 
 POTCAR:    PAW_PBE Ta 17Jan2003                  
   VRHFIN =Ta:  6s5d                                                            
   LEXCH  = PE                                                                  
   EATOM  =   130.6506 eV,    9.6025 Ry                                         
                                                                                
   TITEL  = PAW_PBE Ta 17Jan2003                                                
   LULTRA =        F    use ultrasoft PP ?                                      
   IUNSCR =        1    unscreen: 0-lin 1-nonlin 2-no                           
   RPACOR =    2.330    partial core radius                                     
   POMASS =  180.948; ZVAL   =    5.000    mass and valenz                      
   RCORE  =    2.900    outmost cutoff radius                                   
   RWIGS  =    2.840; RWIGS  =    1.503    wigner-seitz radius (au A)           
   ENMAX  =  223.667; ENMIN  =  167.750 eV                                      
   RCLOC  =    2.205    cutoff for local pot                                    
   LCOR   =        T    correct aug charges                                     
   LPAW   =        T    paw PP                                                  
   EAUG   =  332.075                                                            
   DEXC   =    0.000                                                            
   RMAX   =    2.970    core radius for proj-oper                               
   RAUG   =    1.300    factor for augmentation sphere                          
   RDEP   =    3.060    radius for radial grids                                 
   RDEPT  =    2.354    core radius for aug-charge                              
                                                                                
   Atomic configuration                                                         
   16 entries                                                                   
     n  l   j            E        occ.                                          
     1  0  0.50    -67341.2807   2.0000                                         
     2  0  0.50    -11566.9376   2.0000                                         
     2  1  1.50    -10134.1182   6.0000                                         
     3  0  0.50     -2648.5620   2.0000                                         
     3  1  1.50     -2222.6012   6.0000                                         
     3  2  2.50     -1726.3120  10.0000                                         
     4  0  0.50      -538.6961   2.0000                                         
     4  1  1.50      -399.0129   6.0000                                         
     4  2  2.50      -220.3959  10.0000                                         
     4  3  3.50       -23.0374  14.0000                                         
     5  0  0.50       -71.2901   2.0000                                         
     5  1  1.50       -37.8225   6.0000                                         
     5  2  2.50        -2.6455   4.0000                                         
     6  0  0.50        -4.9623   1.0000                                         
     6  1  1.50        -1.3606   0.0000                                         
     5  3  2.50        -1.3606   0.0000                                         
   Description                                                                  
     l       E           TYP  RCUT    TYP  RCUT                                 
     2     -2.6455043     23  2.500                                             
     2     -0.6258895     23  2.500                                             
     0     -4.9622780     23  2.500                                             
     0      4.7531321     23  2.500                                             
     1     -1.3605826     23  2.900                                             
     1     27.2116520     23  2.900                                             
  local pseudopotential read in
  partial core-charges read in
  partial kinetic energy density read in
  atomic valenz-charges read in
  non local Contribution for L=           2  read in
    real space projection operators read in
  non local Contribution for L=           2  read in
    real space projection operators read in
  non local Contribution for L=           0  read in
    real space projection operators read in
  non local Contribution for L=           0  read in
    real space projection operators read in
  non local Contribution for L=           1  read in
    real space projection operators read in
  non local Contribution for L=           1  read in
    real space projection operators read in
    PAW grid and wavefunctions read in
 
   number of l-projection  operators is LMAX  =           6
   number of lm-projection operators is LMMAX =          18
 
 POTCAR:    PAW_PBE Ti 08Apr2002                  
   VRHFIN =Ti: d3 s1                                                            
   LEXCH  = PE                                                                  
   EATOM  =    94.7928 eV,    6.9671 Ry                                         
                                                                                
   TITEL  = PAW_PBE Ti 08Apr2002                                                
   LULTRA =        F    use ultrasoft PP ?                                      
   IUNSCR =        1    unscreen: 0-lin 1-nonlin 2-no                           
   RPACOR =    2.200    partial core radius                                     
   POMASS =   47.880; ZVAL   =    4.000    mass and valenz                      
   RCORE  =    2.800    outmost cutoff radius                                   
   RWIGS  =    2.500; RWIGS  =    1.323    wigner-seitz radius (au A)           
   ENMAX  =  178.330; ENMIN  =  133.747 eV                                      
   RCLOC  =    2.215    cutoff for local pot                                    
   LCOR   =        T    correct aug charges                                     
   LPAW   =        T    paw PP                                                  
   EAUG   =  328.883                                                            
   DEXC   =    0.000                                                            
   RMAX   =    2.868    core radius for proj-oper                               
   RAUG   =    1.300    factor for augmentation sphere                          
   RDEP   =    2.885    radius for radial grids                                 
   RDEPT  =    2.320    core radius for aug-charge                              
                                                                                
   Atomic configuration                                                         
    9 entries                                                                   
     n  l   j            E        occ.                                          
     1  0  0.50     -4865.3608   2.0000                                         
     2  0  0.50      -533.1367   2.0000                                         
     2  1  1.50      -440.5031   6.0000                                         
     3  0  0.50       -59.3186   2.0000                                         
     3  1  1.50       -35.7012   6.0000                                         
     3  2  2.50        -1.9157   3.0000                                         
     4  0  0.50        -3.7291   1.0000                                         
     4  1  1.50        -4.0817   0.0000                                         
     4  3  2.50        -1.3606   0.0000                                         
   Description                                                                  
     l       E           TYP  RCUT    TYP  RCUT                                 
     2     -1.9156924     23  2.800                                             
     2     -0.4062961     23  2.800                                             
     0     -3.7290832     23  2.800                                             
     0     20.4087390     23  2.800                                             
     1     -5.4423304     23  2.800                                             
  local pseudopotential read in
  partial core-charges read in
  partial kinetic energy density read in
  atomic valenz-charges read in
  non local Contribution for L=           2  read in
    real space projection operators read in
  non local Contribution for L=           2  read in
    real space projection operators read in
  non local Contribution for L=           0  read in
    real space projection operators read in
  non local Contribution for L=           0  read in
    real space projection operators read in
  non local Contribution for L=           1  read in
    real space projection operators read in
    PAW grid and wavefunctions read in
 
   number of l-projection  operators is LMAX  =           5
   number of lm-projection operators is LMMAX =          15
 
 POTCAR:   PAW_PBE Zr 08Apr2002                   
   VRHFIN =Zr: 5s4d5p                                                           
   LEXCH  = PE                                                                  
   EATOM  =    77.8472 eV,    5.7216 Ry                                         
                                                                                
   TITEL  = PAW_PBE Zr 08Apr2002                                                
   LULTRA =        F    use ultrasoft PP ?                                      
   IUNSCR =        1    unscreen: 0-lin 1-nonlin 2-no                           
   RPACOR =    2.200    partial core radius                                     
   POMASS =   91.224; ZVAL   =    4.000    mass and valenz                      
   RCORE  =    3.000    outmost cutoff radius                                   
   RWIGS  =    3.070; RWIGS  =    1.625    wigner-seitz radius (au A)           
   ENMAX  =  154.632; ENMIN  =  115.974 eV                                      
   RCLOC  =    2.213    cutoff for local pot                                    
   LCOR   =        T    correct aug charges                                     
   LPAW   =        T    paw PP                                                  
   EAUG   =  243.217                                                            
   DEXC   =    -.082                                                            
   RMAX   =    3.708    core radius for proj-oper                               
   RAUG   =    1.300    factor for augmentation sphere                          
   RDEP   =    3.146    radius for radial grids                                 
   QCUT   =   -3.371; QGAM   =    6.742    optimization parameters              
                                                                                
   Description                                                                  
     l     E      TYP  RCUT    TYP  RCUT                                        
     2   .000     23  3.000                                                     
     2   .000     23  3.000                                                     
     0   .000     23  3.000                                                     
     0  2.000     23  3.000                                                     
     1  -.400     23  3.000                                                     
     3   .000      7   .000                                                     
  local pseudopotential read in
  partial core-charges read in
  atomic valenz-charges read in
  non local Contribution for L=           2  read in
    real space projection operators read in
  non local Contribution for L=           2  read in
    real space projection operators read in
  non local Contribution for L=           0  read in
    real space projection operators read in
  non local Contribution for L=           0  read in
    real space projection operators read in
  non local Contribution for L=           1  read in
    real space projection operators read in
    PAW grid and wavefunctions read in
 
   number of l-projection  operators is LMAX  =           5
   number of lm-projection operators is LMMAX =          15
 
 POTCAR:    PAW_PBE O 08Apr2002                   
   VRHFIN =O: s2p4                                                              
   LEXCH  = PE                                                                  
   EATOM  =   432.3788 eV,   31.7789 Ry                                         
                                                                                
   TITEL  = PAW_PBE O 08Apr2002                                                 
   LULTRA =        F    use ultrasoft PP ?                                      
   IUNSCR =        1    unscreen: 0-lin 1-nonlin 2-no                           
   RPACOR =    1.200    partial core radius                                     
   POMASS =   16.000; ZVAL   =    6.000    mass and valenz                      
   RCORE  =    1.520    outmost cutoff radius                                   
   RWIGS  =    1.550; RWIGS  =    0.820    wigner-seitz radius (au A)           
   ENMAX  =  400.000; ENMIN  =  300.000 eV                                      
   ICORE  =        2    local potential                                         
   LCOR   =        T    correct aug charges                                     
   LPAW   =        T    paw PP                                                  
   EAUG   =  605.392                                                            
   DEXC   =    0.000                                                            
   RMAX   =    1.553    core radius for proj-oper                               
   RAUG   =    1.300    factor for augmentation sphere                          
   RDEP   =    1.550    radius for radial grids                                 
   RDEPT  =    1.329    core radius for aug-charge                              
                                                                                
   Atomic configuration                                                         
    4 entries                                                                   
     n  l   j            E        occ.                                          
     1  0  0.50      -514.6923   2.0000                                         
     2  0  0.50       -23.9615   2.0000                                         
     2  1  0.50        -9.0305   4.0000                                         
     3  2  1.50        -9.5241   0.0000                                         
   Description                                                                  
     l       E           TYP  RCUT    TYP  RCUT                                 
     0    -23.9615318     23  1.200                                             
     0     -9.5240782     23  1.200                                             
     1     -9.0304911     23  1.520                                             
     1      8.1634956     23  1.520                                             
     2     -9.5240782      7  1.500                                             
  local pseudopotential read in
  partial core-charges read in
  partial kinetic energy density read in
  kinetic energy density of atom read in
  atomic valenz-charges read in
  non local Contribution for L=           0  read in
    real space projection operators read in
  non local Contribution for L=           0  read in
    real space projection operators read in
  non local Contribution for L=           1  read in
    real space projection operators read in
  non local Contribution for L=           1  read in
    real space projection operators read in
    PAW grid and wavefunctions read in
 
   number of l-projection  operators is LMAX  =           4
   number of lm-projection operators is LMMAX =           8
 

 ----------------------------------------------------------------------------- 
|                                                                             |
|  ADVICE TO THIS USER RUNNING 'VASP/VAMP'   (HEAR YOUR MASTER'S VOICE ...):  |
|                                                                             |
|      You have a (more or less) 'large supercell' and for larger cells       |
|      it might be more efficient to use real space projection opertators     |
|      So try LREAL= Auto  in the INCAR   file.                               |
|      Mind: At the moment your POTCAR file does not contain real space       |
|       projectors, and has to be modified,  BUT if you                       |
|      want to do an extremely  accurate calculation you might also keep the  |
|      reciprocal projection scheme          (i.e. LREAL=.FALSE.)             |
|                                                                             |
 ----------------------------------------------------------------------------- 

 WARNING: PSMAXN for non-local potential too small
          PSMAXN should be >   12.5490833729506       NTYP=           5
  PAW_PBE Al 04Jan2001                  :
 energy of atom  1       EATOM=  -53.5387
 kinetic energy error for atom=    0.0002 (will be added to EATOM!!)
  PAW_PBE Nb_sv 25May2007               :
 energy of atom  2       EATOM=-1555.1913
 kinetic energy error for atom=    0.0037 (will be added to EATOM!!)
  PAW_PBE Ta 17Jan2003                  :
 energy of atom  3       EATOM= -130.6506
 kinetic energy error for atom=    0.0004 (will be added to EATOM!!)
  PAW_PBE Ti 08Apr2002                  :
 energy of atom  4       EATOM=  -94.7928
 kinetic energy error for atom=    0.0001 (will be added to EATOM!!)
 PAW_PBE Zr 08Apr2002                   :
 energy of atom  5       EATOM=  -77.8472
 kinetic energy error for atom=    0.0001 (will be added to EATOM!!)
  PAW_PBE O 08Apr2002                   :
 energy of atom  6       EATOM= -432.3788
 kinetic energy error for atom=    0.0168 (will be added to EATOM!!)
 
 
 POSCAR: Al Nb Ta Ti Zr                          
  positions in direct lattice
  velocities in cartesian coordinates
 exchange correlation table for  LEXCH =        8
   RHO(1)=    0.500       N(1)  =     2000
   RHO(2)=  100.500       N(2)  =     4000
 


--------------------------------------------------------------------------------------------------------


 ion  position               nearest neighbor table
   1  0.623  0.867  0.376-  34 2.83  25 2.88  24 2.88   9 2.88  13 2.90   4 2.91  61 2.93  15 3.16
                            41 3.35  17 3.40
   2  0.619  0.401  0.547-  23 2.77  31 2.78  33 2.81  16 2.89  62 2.93   7 2.93  14 2.97  10 3.01
                            26 3.08   3 3.12  17 3.13  42 3.41
   3  0.588  0.635  0.624-  79 1.83  75 1.83  78 1.91  32 2.65  33 2.73   8 2.79  26 2.88  23 2.95
                            45 2.96   2 3.12  14 3.13
   4  0.618  0.084  0.450-  31 2.80  24 2.86  34 2.87  13 2.88   1 2.91  25 2.92   7 2.92  62 2.95
                            10 3.12  28 3.16  46 3.24
   5  0.967  0.637  0.546-  82 2.13  27 2.70  30 2.74  63 2.81  42 2.96  52 3.01  56 3.06  47 3.06
                            23 3.14  57 3.20  59 3.37  54 3.59
   6  0.980  0.121  0.378-  29 2.80  28 2.80  53 2.91  41 2.96  51 3.05  55 3.05  60 3.08  57 3.37

   7  0.729  0.343  0.458-  28 2.77  29 2.83  31 2.85  17 2.89  11 2.90   4 2.92   2 2.93  63 3.07
                            62 3.08  42 3.19
   8  0.725  0.848  0.634-  78 2.04  71 2.05  77 2.08  79 2.12  27 2.72   3 2.79  32 2.82  12 2.91
                            30 2.91  18 2.94  64 3.21
   9  0.517  0.608  0.367-  35 2.84  15 2.85  17 2.87   1 2.88  11 2.89  61 2.95  43 3.10
  10  0.509  0.129  0.547-  16 2.70  36 2.88  12 2.89  62 2.90  18 3.00   2 3.01  46 3.07   4 3.12
                            44 3.13
  11  0.618  0.343  0.369-  24 2.75  34 2.83  31 2.87   9 2.89   7 2.90  61 2.96  43 3.27
  12  0.619  0.872  0.543-  23 2.82  13 2.82  33 2.84  32 2.85  62 2.86  10 2.89   8 2.91  25 2.92
                            44 3.38
  13  0.742  0.843  0.462-  12 2.82  17 2.87   4 2.88   1 2.90  28 2.94  30 2.97  63 2.98  41 3.05
                            57 3.27
  14  0.742  0.396  0.635-  76 2.01  74 2.02  79 2.24  42 2.88   2 2.97  18 3.00  27 3.00  64 3.10
                            58 3.10   3 3.13
  15  0.394  0.847  0.369-  22 2.68  19 2.76  25 2.83  34 2.84   9 2.85  39 2.98   1 3.16  46 3.43

  16  0.410  0.372  0.546-  84 2.14  10 2.70  21 2.74  33 2.79  26 2.82  31 2.82  20 2.88   2 2.89
                            40 3.09  37 3.10
  17  0.619  0.602  0.458-  33 2.78  25 2.81  31 2.85   9 2.87  13 2.87   7 2.89  61 2.95  23 3.02
                            35 3.03   2 3.13   1 3.40  63 3.44
  18  0.633  0.125  0.637-  71 2.05  74 2.05  72 2.05  32 2.67  62 2.87   8 2.94  10 3.00  14 3.00
                            26 3.03  64 3.12  36 3.24
  19  0.279  0.834  0.451-  15 2.76  35 2.94  46 2.96  39 2.97  25 2.99  44 3.01  60 3.07  51 3.08
                            47 3.12  56 3.34
  20  0.272  0.361  0.624-  69 2.01  70 2.05  67 2.22  84 2.30  16 2.88  36 2.99  59 3.04  40 3.06
                            26 3.08  48 3.08  52 3.10  21 3.13  45 3.13
  21  0.274  0.581  0.541-  84 2.07  80 2.08  82 2.14  16 2.74  37 2.96  45 2.99  35 3.02  47 3.04
                            52 3.05  44 3.07  59 3.09  33 3.10  20 3.13  56 3.22
  22  0.283  0.077  0.361-  15 2.68  46 2.97  43 2.97  34 2.99  51 3.02  55 3.10  60 3.10
  23  0.739  0.633  0.548-  79 2.17   2 2.77  12 2.82  30 2.84  27 2.88   3 2.95  17 3.02  42 3.08
                            63 3.09   5 3.14
  24  0.740  0.115  0.366-  29 2.73  11 2.75  28 2.85   4 2.86   1 2.88  41 3.00
  25  0.496  0.836  0.458-  35 2.78  17 2.81  15 2.83   1 2.88  33 2.91   4 2.92  12 2.92  19 2.99
                            46 2.99  44 3.03
  26  0.494  0.370  0.638-  70 1.90  75 1.91  74 1.94  16 2.82  36 2.83   3 2.88  18 3.03   2 3.08
                            20 3.08  45 3.16
  27  0.868  0.651  0.630-  76 2.03  79 2.04  68 2.08  77 2.14   5 2.70  58 2.71   8 2.72  23 2.88
                            14 3.00  54 3.00  30 3.05  42 3.49
  28  0.847  0.110  0.455-   7 2.77   6 2.80  24 2.85  57 2.90  13 2.94  53 2.98  62 3.00  29 3.15
                             4 3.16  50 3.19  41 3.36
  29  0.852  0.349  0.376-  24 2.73   6 2.80   7 2.83  53 2.94  61 2.98  49 3.07  28 3.15  63 3.25

  30  0.857  0.876  0.552-  83 2.11  77 2.26   5 2.74  23 2.84   8 2.91  57 2.92  13 2.97  50 3.04
                            27 3.05  62 3.11  64 3.40  54 3.49
  31  0.522  0.339  0.461-   2 2.78   4 2.80  16 2.82  17 2.85   7 2.85  35 2.86  11 2.87  46 2.95
                            43 3.11
  32  0.523  0.895  0.634-  78 1.88  72 2.00  65 2.01   3 2.65  36 2.67  18 2.67   8 2.82  12 2.85
                            45 3.10  44 3.15
  33  0.496  0.634  0.536-   3 2.73  35 2.75  17 2.78  16 2.79   2 2.81  44 2.81  12 2.84  25 2.91
                            21 3.10  45 3.16
  34  0.499  0.102  0.365-  11 2.83   1 2.83  15 2.84   4 2.87  43 2.91  46 2.98  22 2.99
  35  0.400  0.580  0.451-  33 2.75  25 2.78   9 2.84  31 2.86  37 2.88  39 2.93  19 2.94  21 3.02
                            17 3.03  43 3.08
  36  0.398  0.108  0.635-  72 1.95  67 2.04  70 2.04  65 2.14  32 2.67  26 2.83  10 2.88  38 2.93
                            20 2.99  40 3.16  18 3.24  44 3.35
  37  0.255  0.366  0.464-  84 2.15  35 2.88  21 2.96  47 3.02  60 3.04  43 3.05  55 3.08  46 3.08
                            16 3.10  40 3.17  52 3.27  39 3.39
  38  0.230  0.920  0.635-  73 1.91  65 2.05  67 2.06  80 2.12  56 2.84  54 2.87  36 2.93  48 2.95
                            59 3.13  44 3.14  40 3.21  45 3.24
  39  0.252  0.614  0.376-  35 2.93  19 2.97  15 2.98  47 3.07  43 3.07  51 3.07  55 3.08  37 3.39
                            49 3.53
  40  0.256  0.135  0.546-  84 2.22  67 2.40  44 3.03  20 3.06  60 3.07  46 3.08  16 3.09  36 3.16
                            37 3.17  56 3.21  38 3.21  52 3.25  48 3.33  50 3.44
  41  0.865  0.859  0.370-   6 2.96  24 3.00  61 3.05  13 3.05  57 3.06  49 3.12   1 3.35  28 3.36
                            51 3.49  63 3.53
  42  0.864  0.366  0.551-  81 2.26  83 2.65  14 2.88   5 2.96  62 3.00  23 3.08   7 3.19  50 3.20
                            58 3.21  52 3.25  53 3.31  63 3.36   2 3.41  64 3.41  27 3.49
  43  0.381  0.352  0.373-  34 2.91  22 2.97  37 3.05  39 3.07  35 3.08   9 3.10  31 3.11  55 3.26
                            11 3.27  46 3.29
  44  0.374  0.867  0.548-  80 2.31  65 2.42  33 2.81  19 3.01  25 3.03  40 3.03  21 3.07  45 3.12
                            10 3.13  38 3.14  32 3.15  56 3.32  36 3.35  12 3.38  46 3.42
  45  0.375  0.652  0.633-  69 2.10  75 2.11  80 2.22  65 2.24   3 2.96  21 2.99  32 3.10  44 3.12
                            20 3.13  26 3.16  33 3.16  59 3.21  38 3.24
  46  0.384  0.104  0.456-  31 2.95  19 2.96  22 2.97  34 2.98  25 2.99  10 3.07  40 3.08  37 3.08
                             4 3.24  60 3.27  43 3.29  44 3.42  15 3.43
  47  0.117  0.611  0.465-  82 2.28  37 3.02  21 3.04   5 3.06  39 3.07  19 3.12  53 3.14  49 3.15
                            57 3.17  56 3.24  52 3.25  63 3.42  51 3.52  55 3.80
  48  0.098  0.162  0.637-  67 2.14  66 2.14  81 2.20  38 2.95  54 3.04  50 3.06  58 3.07  20 3.08
                            52 3.17  64 3.30  40 3.33
  49  0.996  0.593  0.368-  63 3.05  29 3.07  41 3.12  47 3.15  51 3.16  55 3.23  53 3.44  39 3.53
                            61 3.65  57 3.82
  50  0.008  0.106  0.538-  83 2.12  81 2.23  57 3.00  52 3.01  56 3.01  30 3.04  48 3.06  60 3.08
                            53 3.18  28 3.19  42 3.20  40 3.44  64 3.51  54 3.79
  51  0.119  0.872  0.375-  60 3.00  22 3.02   6 3.05  39 3.07  19 3.08  57 3.16  49 3.16  41 3.49
                            47 3.52
  52  0.100  0.388  0.553-  81 2.14  84 2.17  82 2.19   5 3.01  50 3.01  21 3.05  20 3.10  53 3.13
                            59 3.13  48 3.17  42 3.25  40 3.25  47 3.25  37 3.27  58 3.40
  53  1.000  0.331  0.453-   6 2.91  29 2.94  28 2.98  60 3.06  63 3.08  55 3.09  52 3.13  47 3.14
                            50 3.18  42 3.31  49 3.44
  54  0.027  0.862  0.645-  77 2.13  73 2.14  68 2.25  59 2.86  38 2.87  27 3.00  48 3.04  56 3.08
                            64 3.39  30 3.49   5 3.59  50 3.79
  55  0.145  0.332  0.368-   6 3.05  37 3.08  39 3.08  53 3.09  22 3.10  49 3.23  60 3.24  43 3.26
                            47 3.80
  56  0.133  0.849  0.547-  82 2.25  80 2.28  38 2.84  50 3.01   5 3.06  54 3.08  57 3.12  59 3.19
                            40 3.21  21 3.22  47 3.24  44 3.32  19 3.34  60 3.54
  57  0.979  0.876  0.465-  28 2.90  30 2.92  50 3.00  41 3.06  63 3.11  56 3.12  60 3.13  51 3.16
                            47 3.17   5 3.20  13 3.27   6 3.37  49 3.82
  58  0.963  0.413  0.655-  76 2.07  66 2.09  81 2.21  68 2.21  27 2.71  48 3.07  14 3.10  64 3.16
                            42 3.21  59 3.23  52 3.40
  59  0.143  0.618  0.630-  69 2.16  68 2.18  73 2.20  80 2.27  82 2.33  54 2.86  20 3.04  21 3.09
                            38 3.13  52 3.13  56 3.19  45 3.21  58 3.23   5 3.37
  60  0.147  0.092  0.451-  51 3.00  37 3.04  53 3.06  19 3.07  40 3.07   6 3.08  50 3.08  22 3.10
                            57 3.13  55 3.24  46 3.27  56 3.54
  61  0.731  0.606  0.367-   1 2.93  17 2.95   9 2.95  11 2.96  29 2.98  41 3.05  63 3.17  49 3.65

  62  0.720  0.133  0.542-  83 2.12  12 2.86  18 2.87  10 2.90   2 2.93   4 2.95  28 3.00  42 3.00
                             7 3.08  30 3.11  64 3.34
  63  0.869  0.592  0.458-   5 2.81  13 2.98  49 3.05   7 3.07  53 3.08  23 3.09  57 3.11  61 3.17
                            29 3.25  42 3.36  47 3.42  17 3.44  41 3.53
  64  0.860  0.121  0.641-  83 2.11  71 2.12  66 2.18  77 2.38  81 2.69  14 3.10  18 3.12  58 3.16
                             8 3.21  48 3.30  62 3.34  54 3.39  30 3.40  42 3.41  50 3.51
  65  0.377  0.886  0.636-  32 2.01  38 2.05  36 2.14  45 2.24  44 2.42
  66  0.978  0.212  0.683-  58 2.09  48 2.14  64 2.18
  67  0.252  0.132  0.633-  36 2.04  38 2.06  48 2.14  20 2.22  40 2.40
  68  0.001  0.636  0.665-  27 2.08  59 2.18  58 2.21  54 2.25
  69  0.268  0.531  0.667-  20 2.01  45 2.10  59 2.16
  70  0.382  0.296  0.669-  26 1.90  36 2.04  20 2.05
  71  0.739  0.025  0.675-  18 2.05   8 2.05  64 2.12
  72  0.512  0.067  0.675-  36 1.95  32 2.00  18 2.05
  73  0.161  0.800  0.678-  38 1.91  54 2.14  59 2.20
  74  0.619  0.321  0.665-  26 1.94  14 2.02  18 2.05
  75  0.498  0.555  0.664-   3 1.83  26 1.91  45 2.11
  76  0.834  0.499  0.679-  14 2.01  27 2.03  58 2.07
  77  0.875  0.874  0.633-   8 2.08  54 2.13  27 2.14  30 2.26  64 2.38
  78  0.606  0.780  0.670-  32 1.88   3 1.91   8 2.04
  79  0.721  0.627  0.626-   3 1.83  27 2.04   8 2.12  23 2.17  14 2.24
  80  0.255  0.744  0.589-  21 2.08  38 2.12  45 2.22  59 2.27  56 2.28  44 2.31
  81  0.991  0.275  0.592-  52 2.14  48 2.20  58 2.21  50 2.23  42 2.26  64 2.69
  82  0.121  0.615  0.547-   5 2.13  21 2.14  52 2.19  56 2.25  47 2.28  59 2.33
  83  0.864  0.093  0.565-  30 2.11  64 2.11  50 2.12  62 2.12  42 2.65
  84  0.255  0.366  0.542-  21 2.07  16 2.14  37 2.15  52 2.17  40 2.22  20 2.30
 
  LATTYP: Found a simple orthorhombic cell.
 ALAT       =     9.5644817352
 B/A-ratio  =     1.4398428730
 C/A-ratio  =     2.8922184390
  
  Lattice vectors:
  
 A1 = (   0.0000000000,  -9.5644817352,   0.0000000000)
 A2 = ( -13.7713508606,   0.0000000000,   0.0000000000)
 A3 = (   0.0000000000,   0.0000000000, -27.6625704340)


Analysis of symmetry for initial positions (statically):
=====================================================================
 Subroutine PRICEL returns:
 Original cell was already a primitive cell.
 

 Routine SETGRP: Setting up the symmetry group for a 
 simple orthorhombic supercell.


 Subroutine GETGRP returns: Found  1 space group operations
 (whereof  1 operations were pure point group operations)
 out of a pool of  8 trial point group operations.


The static configuration has the point symmetry C_1 .


Analysis of symmetry for dynamics (positions and initial velocities):
=====================================================================
 Subroutine PRICEL returns:
 Original cell was already a primitive cell.
 

 Routine SETGRP: Setting up the symmetry group for a 
 simple orthorhombic supercell.


 Subroutine GETGRP returns: Found  1 space group operations
 (whereof  1 operations were pure point group operations)
 out of a pool of  8 trial point group operations.


The dynamic configuration has the point symmetry C_1 .


Analysis of constrained symmetry for selective dynamics:
=====================================================================
 Subroutine PRICEL returns:
 Original cell was already a primitive cell.
 

 Routine SETGRP: Setting up the symmetry group for a 
 simple orthorhombic supercell.


 Subroutine GETGRP returns: Found  1 space group operations
 (whereof  1 operations were pure point group operations)
 out of a pool of  8 trial point group operations.


The constrained configuration has the point symmetry C_1 .


 Subroutine INISYM returns: Found  1 space group operations
 (whereof  1 operations are pure point group operations),
 and found     1 'primitive' translations

 
 
 KPOINTS: k-points                                

Automatic generation of k-mesh.
Space group operators:
 irot       det(A)        alpha          n_x          n_y          n_z        tau_x        tau_y        tau_z
    1     1.000000     0.000000     1.000000     0.000000     0.000000     0.000000     0.000000     0.000000
 
 Subroutine IBZKPT returns following result:
 ===========================================
 
 Found      5 irreducible k-points:
 
 Following reciprocal coordinates:
            Coordinates               Weight
  0.000000  0.000000  0.000000      1.000000
  0.333333  0.000000  0.000000      2.000000
  0.000000  0.333333  0.000000      2.000000
  0.333333  0.333333  0.000000      2.000000
 -0.333333  0.333333  0.000000      2.000000
 
 Following cartesian coordinates:
            Coordinates               Weight
  0.000000  0.000000  0.000000      1.000000
  0.024205  0.000000  0.000000      2.000000
  0.000000  0.034851  0.000000      2.000000
  0.024205  0.034851  0.000000      2.000000
 -0.024205  0.034851  0.000000      2.000000
 


--------------------------------------------------------------------------------------------------------




 Dimension of arrays:
   k-points           NKPTS =      5   k-points in BZ     NKDIM =      5   number of bands    NBANDS=    278
   number of dos      NEDOS =    301   number of ions     NIONS =     84
   non local maximal  LDIM  =      6   non local SUM 2l+1 LMDIM =     18
   total plane-waves  NPLWV = 846720
   max r-space proj   IRMAX =      1   max aug-charges    IRDMAX=  25433
   dimension x,y,z NGX =    84 NGY =   60 NGZ =  168
   dimension x,y,z NGXF=   168 NGYF=  120 NGZF=  336
   support grid    NGXF=   168 NGYF=  120 NGZF=  336
   ions per type =               6  10   4  18  26  20
 NGX,Y,Z   is equivalent  to a cutoff of  10.14, 10.43, 10.10 a.u.
 NGXF,Y,Z  is equivalent  to a cutoff of  20.28, 20.86, 20.19 a.u.


 I would recommend the setting:
   dimension x,y,z NGX =    83 NGY =   57 NGZ =  166
 SYSTEM =  (110) surface                           
 POSCAR =  Al Nb Ta Ti Zr                          

 Startparameter for this run:
   NWRITE =      2    write-flag & timer
   PREC   = normal    normal or accurate (medium, high low for compatibility)
   ISTART =      0    job   : 0-new  1-cont  2-samecut
   ICHARG =      2    charge: 1-file 2-atom 10-const
   ISPIN  =      1    spin polarized calculation?
   LNONCOLLINEAR =      F non collinear calculations
   LSORBIT =      F    spin-orbit coupling
   INIWAV =      1    electr: 0-lowe 1-rand  2-diag
   LASPH  =      F    aspherical Exc in radial PAW
   METAGGA=      F    non-selfconsistent MetaGGA calc.

 Electronic Relaxation 1
   ENCUT  =  600.0 eV  44.10 Ry    6.64 a.u.  27.50 19.10 55.25*2*pi/ulx,y,z
   ENINI  =  600.0     initial cutoff
   ENAUG  =  605.4 eV  augmentation charge cutoff
   NELM   =     60;   NELMIN=  2; NELMDL= -5     # of ELM steps 
   EDIFF  = 0.1E-03   stopping-criterion for ELM
   LREAL  =      F    real-space projection
   NLSPLINE    = F    spline interpolate recip. space projectors
   LCOMPAT=      F    compatible to vasp.4.4
   GGA_COMPAT  = T    GGA compatible to vasp.4.4-vasp.4.6
   LMAXPAW     = -100 max onsite density
   LMAXMIX     =    2 max onsite mixed and CHGCAR
   VOSKOWN=      0    Vosko Wilk Nusair interpolation
   ROPT   =    0.00000   0.00000   0.00000   0.00000
   ROPT   =    0.00000   0.00000
 Ionic relaxation
   EDIFFG = 0.1E-02   stopping-criterion for IOM
   NSW    =      0    number of steps for IOM
   NBLOCK =      1;   KBLOCK =      1    inner block; outer block 
   IBRION =     -1    ionic relax: 0-MD 1-quasi-New 2-CG
   NFREE  =      0    steps in history (QN), initial steepest desc. (CG)
   ISIF   =      2    stress and relaxation
   IWAVPR =     10    prediction:  0-non 1-charg 2-wave 3-comb
   ISYM   =      2    0-nonsym 1-usesym 2-fastsym
   LCORR  =      T    Harris-Foulkes like correction to forces

   POTIM  = 0.1000    time-step for ionic-motion
   TEIN   =    0.0    initial temperature
   TEBEG  =    0.0;   TEEND  =   0.0 temperature during run
   SMASS  =  -3.00    Nose mass-parameter (am)
   estimated Nose-frequenzy (Omega)   =  0.10E-29 period in steps =****** mass=  -0.433E-26a.u.
   SCALEE = 1.0000    scale energy and forces
   NPACO  =    256;   APACO  = 16.0  distance and # of slots for P.C.
   PSTRESS=    0.0 pullay stress

  Mass of Ions in am
   POMASS =  26.98 92.91180.95 47.88 91.22 16.00
  Ionic Valenz
   ZVAL   =   3.00 13.00  5.00  4.00  4.00  6.00
  Atomic Wigner-Seitz radii
   RWIGS  =  -1.00 -1.00 -1.00 -1.00 -1.00 -1.00
  virtual crystal weights 
   VCA    =   1.00  1.00  1.00  1.00  1.00  1.00
   NELECT =     464.0000    total number of electrons
   NUPDOWN=      -1.0000    fix difference up-down

 DOS related values:
   EMIN   =  10.00;   EMAX   =-10.00  energy-range for DOS
   EFERMI =   0.00
   ISMEAR =     2;   SIGMA  =   0.10  broadening in eV -4-tet -1-fermi 0-gaus

 Electronic relaxation 2 (details)
   IALGO  =     68    algorithm
   LDIAG  =      T    sub-space diagonalisation (order eigenvalues)
   LSUBROT=      F    optimize rotation matrix (better conditioning)
   TURBO    =      0    0=normal 1=particle mesh
   IRESTART =      0    0=no restart 2=restart with 2 vectors
   NREBOOT  =      0    no. of reboots
   NMIN     =      0    reboot dimension
   EREF     =   0.00    reference energy to select bands
   IMIX   =      4    mixing-type and parameters
     AMIX     =   0.40;   BMIX     =  1.00
     AMIX_MAG =   1.60;   BMIX_MAG =  1.00
     AMIN     =   0.10
     WC   =   100.;   INIMIX=   1;  MIXPRE=   1;  MAXMIX= -45

 Intra band minimization:
   WEIMIN = 0.0000     energy-eigenvalue tresh-hold
   EBREAK =  0.90E-07  absolut break condition
   DEPER  =   0.30     relativ break condition  

   TIME   =   0.40     timestep for ELM

  volume/ion in A,a.u.               =      43.38       292.72
  Fermi-wavevector in a.u.,A,eV,Ry     =   0.823640  1.556454  9.229954  0.678383
  Thomas-Fermi vector in A             =   1.935185
 
 Write flags
   LWAVE  =      F    write WAVECAR
   LCHARG =      T    write CHGCAR
   LVTOT  =      F    write LOCPOT, total local potential
   LVHAR  =      F    write LOCPOT, Hartree potential only
   LELF   =      F    write electronic localiz. function (ELF)
   LORBIT =      0    0 simple, 1 ext, 2 COOP (PROOUT)


 Dipole corrections
   LMONO  =      F    monopole corrections only (constant potential shift)
   LDIPOL =      F    correct potential (dipole corrections)
   IDIPOL =      0    1-x, 2-y, 3-z, 4-all directions 
   EPSILON=  1.0000000 bulk dielectric constant

 Exchange correlation treatment:
   GGA     =    --    GGA type
   LEXCH   =     8    internal setting for exchange type
   VOSKOWN=      0    Vosko Wilk Nusair interpolation
   LHFCALC =     F    Hartree Fock is set to
   LHFONE  =     F    Hartree Fock one center treatment
   AEXX    =    0.0000 exact exchange contribution

 Linear response parameters
   LEPSILON=     F    determine dielectric tensor
   LRPA    =     F    only Hartree local field effects (RPA)
   LNABLA  =     F    use nabla operator in PAW spheres
   LVEL    =     F    velocity operator in full k-point grid
   LINTERFAST=   F  fast interpolation
   KINTER  =     0    interpolate to denser k-point grid
   CSHIFT  =0.1000    complex shift for real part using Kramers Kronig
   OMEGAMAX=  -1.0    maximum frequency
   DEG_THRESHOLD= 0.2000000E-02 threshold for treating states as degnerate
   RTIME   =    0.100 relaxation time in fs

 Orbital magnetization related:
   ORBITALMAG=     F  switch on orbital magnetization
   LCHIMAG   =     F  perturbation theory with respect to B field
   DQ        =  0.001000  dq finite difference perturbation B field



--------------------------------------------------------------------------------------------------------


 Static calculation
 charge density and potential will be updated during run
 non-spin polarized calculation
 RMM-DIIS sequential band-by-band and
  variant of blocked Davidson during initial phase
 perform sub-space diagonalisation
    before iterative eigenvector-optimisation
 modified Broyden-mixing scheme, WC =      100.0
 initial mixing is a Kerker type mixing with AMIX =  0.4000 and BMIX =      1.0000
 Hartree-type preconditioning will be used
 using additional bands           46
 reciprocal scheme for non local part
 use partial core corrections
 calculate Harris-corrections to forces 
   (improved forces if not selfconsistent)
 use gradient corrections 
 use of overlap-Matrix (Vanderbilt PP)
 Methfessel and Paxton  Order N= 2 SIGMA  =   0.10


--------------------------------------------------------------------------------------------------------


  energy-cutoff  :      600.00
  volume of cell :     3643.60
      direct lattice vectors                 reciprocal lattice vectors
    13.771350861  0.000000000  0.000000000     0.072614518  0.000000000  0.000000000
     0.000000000  9.564481735  0.000000000     0.000000000  0.104553496  0.000000000
     0.000000000  0.000000000 27.662570434     0.000000000  0.000000000  0.036149931

  length of vectors
    13.771350861  9.564481735 27.662570434     0.072614518  0.104553496  0.036149931


 
 k-points in units of 2pi/SCALE and weight: k-points                                
   0.00000000  0.00000000  0.00000000       0.111
   0.02420484  0.00000000  0.00000000       0.222
   0.00000000  0.03485117  0.00000000       0.222
   0.02420484  0.03485117  0.00000000       0.222
  -0.02420484  0.03485117  0.00000000       0.222
 
 k-points in reciprocal lattice and weights: k-points                                
   0.00000000  0.00000000  0.00000000       0.111
   0.33333333  0.00000000  0.00000000       0.222
   0.00000000  0.33333333  0.00000000       0.222
   0.33333333  0.33333333  0.00000000       0.222
  -0.33333333  0.33333333  0.00000000       0.222
 
 position of ions in fractional coordinates (direct lattice) 
   0.62276447  0.86746430  0.37590333
   0.61852864  0.40122255  0.54679617
   0.58840864  0.63504639  0.62379988
   0.61839700  0.08363760  0.44965952
   0.96734906  0.63736171  0.54584670
   0.97963780  0.12056648  0.37767599
   0.72857308  0.34338307  0.45816820
   0.72527518  0.84788958  0.63351912
   0.51739597  0.60805875  0.36719826
   0.50947836  0.12885882  0.54735119
   0.61811078  0.34297293  0.36889183
   0.61926916  0.87154609  0.54305653
   0.74231148  0.84345710  0.46199300
   0.74185213  0.39631123  0.63485103
   0.39405298  0.84738672  0.36896032
   0.40952492  0.37150530  0.54561490
   0.61928761  0.60162497  0.45752798
   0.63309638  0.12474412  0.63656342
   0.27944195  0.83362269  0.45088327
   0.27227953  0.36051997  0.62430334
   0.27399162  0.58057244  0.54071233
   0.28324246  0.07725573  0.36149931
   0.73919556  0.63285394  0.54818926
   0.74002355  0.11549973  0.36646499
   0.49591756  0.83582580  0.45790018
   0.49376749  0.37003038  0.63835480
   0.86824361  0.65134886  0.63007237
   0.84724605  0.11017048  0.45460239
   0.85243583  0.34907103  0.37639265
   0.85749508  0.87589906  0.55192632
   0.52175105  0.33942658  0.46105252
   0.52336203  0.89450440  0.63408158
   0.49619355  0.63381613  0.53640783
   0.49943882  0.10200214  0.36464270
   0.40016663  0.58028412  0.45130253
   0.39849939  0.10757716  0.63537550
   0.25505811  0.36595738  0.46399110
   0.23048880  0.91960993  0.63469395
   0.25182599  0.61397660  0.37627308
   0.25634353  0.13487098  0.54638247
   0.86539888  0.85904646  0.37036829
   0.86444843  0.36625971  0.55111168
   0.38059813  0.35186696  0.37331264
   0.37389934  0.86665074  0.54842232
   0.37458047  0.65188527  0.63325614
   0.38408008  0.10357511  0.45579618
   0.11657381  0.61110574  0.46457054
   0.09772280  0.16214323  0.63683857
   0.99629861  0.59295863  0.36811234
   0.00769276  0.10560483  0.53766075
   0.11869311  0.87196302  0.37467704
   0.09960954  0.38785859  0.55280254
   0.99977952  0.33051389  0.45306987
   0.02717525  0.86196845  0.64534439
   0.14482272  0.33176249  0.36788561
   0.13341816  0.84926949  0.54733166
   0.97888047  0.87608504  0.46520830
   0.96334621  0.41337195  0.65478021
   0.14304342  0.61789103  0.63042499
   0.14721048  0.09173214  0.45072276
   0.73135245  0.60578495  0.36679988
   0.71988566  0.13256870  0.54213874
   0.86923259  0.59196168  0.45825814
   0.85959651  0.12120863  0.64074568
   0.37739918  0.88583752  0.63579777
   0.97782376  0.21181779  0.68308955
   0.25157514  0.13230137  0.63326357
   0.00148217  0.63611723  0.66479404
   0.26761380  0.53063631  0.66719189
   0.38223467  0.29552850  0.66918765
   0.73946720  0.02484039  0.67504814
   0.51195364  0.06650352  0.67492496
   0.16137150  0.79983146  0.67813143
   0.61900618  0.32118205  0.66521152
   0.49777440  0.55528547  0.66372914
   0.83419847  0.49922017  0.67853489
   0.87494404  0.87435981  0.63302367
   0.60621386  0.77964396  0.67036744
   0.72111783  0.62715825  0.62601896
   0.25535319  0.74392550  0.58938886
   0.99085123  0.27508433  0.59224275
   0.12099414  0.61465828  0.54700230
   0.86432602  0.09259652  0.56510677
   0.25469907  0.36606071  0.54172364
 
 position of ions in cartesian coordinates  (Angst):
   8.57630799  8.29684649 10.39845223
   8.51797490  3.83748580 15.12578767
   8.10318188  6.07388956 17.25590802
   8.51616202  0.79995025 12.43873821
  13.32170329  6.09603447 15.09952284
  13.49093588  1.15315590 10.44748880
  10.03343557  3.28428114 12.67411000
   9.98801902  8.10962438 17.52476721
   7.12524148  5.81576681 10.15764776
   7.01620522  1.23246783 15.14114088
   8.51222037  3.28035836 10.20449636
   8.52817281  8.33588664 15.02233953
  10.22263181  8.06723005 12.77991378
  10.21630594  3.79051157 17.56161141
   5.42664188  8.10481479 10.20639088
   5.63971135  3.55325569 15.09311049
   8.52842696  5.75423100 12.65640004
   8.71859234  1.19311290 17.60898051
   3.84829318  7.97316903 12.47259035
   3.74965696  3.44818668 17.26983523
   3.77323475  5.55287449 14.95749298
   3.90063135  0.73891098 10.00000000
  10.17972138  6.05291998 15.16432405
  10.19112400  1.10469510 10.13736353
   6.82945470  7.99424061 12.66669595
   6.79984539  3.53914877 17.65853473
  11.95688732  6.22981432 17.42942124
  11.66772263  1.05372358 12.57547056
  11.73919286  3.33868345 10.41198829
  11.80886555  8.37752052 15.26770076
   7.18521672  3.24643930 12.75389771
   7.20740218  8.55547101 17.54032639
   6.83325547  6.06212284 14.83841941
   6.87794726  0.97559764 10.08695433
   5.51083508  5.55011685 12.48418803
   5.48787497  1.02891974 17.57611948
   3.51249472  3.50019267 12.83518635
   3.17414214  8.79559236 17.55726607
   3.46798404  5.87236796 10.40868071
   3.53019676  1.28997106 15.11434359
  11.91771166  8.21633417 10.24533883
  11.90462261  3.50308430 15.24516557
   5.24135036  3.36542512 10.32678719
   5.14909901  8.28906518 15.17077095
   5.15847907  6.23494472 17.51749250
   5.28930157  0.99064225 12.60849381
   1.60537885  5.84490969 12.85121538
   1.34577491  1.55081599 17.61659174
  13.72037774  5.67134198 10.18293350
   0.10593972  1.01005550 14.87307841
   1.63456451  8.33987442 10.36453009
   1.37175796  3.70966635 15.29193910
  13.76831459  3.16119411 12.53307716
   0.37423990  8.24428150 17.85188477
   1.99440444  3.17313630 10.17666150
   1.83734832  8.12282252 15.14060055
  13.48050634  8.37929939 12.86885734
  13.26657864  3.95368845 18.11290362
   1.96990114  5.90980743 17.43917558
   2.02728715  0.87737042 12.46815015
  10.07171117  5.79401911 10.14662739
   9.91379795  1.26795087 14.99695109
  11.97050705  5.66180669 12.67659812
  11.83780517  1.15929777 17.72467249
   5.19729655  8.47257683 17.58780054
  13.46595402  2.02592743 18.89601277
   3.46452949  1.26539401 17.51769808
   0.02041155  6.08413161 18.38991208
   3.68540354  5.07526125 18.45624265
   5.26388777  2.82657693 18.51145047
  10.18346229  0.23758546 18.67356661
   7.05029318  0.63607172 18.67015932
   2.22230350  7.64997343 18.75885840
   8.52455135  3.07193981 18.40146062
   6.85502594  5.31101776 18.36045403
  11.48803975  4.77478224 18.77001924
  12.04916131  8.36279842 17.51106177
   8.34838377  7.45689037 18.54408647
   9.93076664  5.99844367 17.31729358
   3.51655834  7.11526185 16.30401074
  13.64535994  2.63103902 16.38295673
   1.66625269  5.87888790 15.13148973
  11.90293694  0.88563768 15.63230590
   3.50755032  3.50118102 14.98546836
 


--------------------------------------------------------------------------------------------------------


 k-point  1 :   0.0000 0.0000 0.0000  plane waves:  121663
 k-point  2 :   0.3333 0.0000 0.0000  plane waves:  121577
 k-point  3 :   0.0000 0.3333 0.0000  plane waves:  121622
 k-point  4 :   0.3333 0.3333 0.0000  plane waves:  121647
 k-point  5 :  -0.3333 0.3333 0.0000  plane waves:  121647

 maximum and minimum number of plane-waves per node :      5107     5041

 maximum number of plane-waves:    121663
 maximum index in each direction: 
   IXMAX=   27   IYMAX=   19   IZMAX=   55
   IXMIN=  -27   IYMIN=  -19   IZMIN=  -55

 WARNING: aliasing errors must be expected set NGX to 110 to avoid them
 WARNING: aliasing errors must be expected set NGY to  78 to avoid them
 WARNING: aliasing errors must be expected set NGZ to 222 to avoid them
 aliasing errors are usually negligible using standard VASP settings
 and one can safely disregard these warnings

 parallel 3D FFT for wavefunctions:
    minimum data exchange during FFTs selected (reduces bandwidth)
 parallel 3D FFT for charge:
    minimum data exchange during FFTs selected (reduces bandwidth)


 total amount of memory used by VASP on root node   138240. kBytes
========================================================================

   base      :      30000. kBytes
   nonl-proj :      28739. kBytes
   fftplans  :       6516. kBytes
   grid      :      15878. kBytes
   one-center:         62. kBytes
   wavefun   :      57045. kBytes
 
     INWAV:  cpu time    0.0000: real time    0.0000
 Broyden mixing: mesh for mixing (old mesh)
   NGX = 55   NGY = 39   NGZ =111
  (NGX  =168   NGY  =120   NGZ  =336)
  gives a total of 238095 points

 initial charge density was supplied:
 charge density of overlapping atoms calculated
 number of electron     464.0000000 magnetization 
 keeping initial charge density in first step


--------------------------------------------------------------------------------------------------------


 Maximum index for augmentation-charges         1033 (set IRDMAX)


--------------------------------------------------------------------------------------------------------


 First call to EWALD:  gamma=   0.115
 Maximum number of real-space cells 3x 4x 2
 Maximum number of reciprocal cells 3x 2x 5

 FEWALD executed in parallel
    FEWALD:  cpu time    0.0030: real time    0.0030


----------------------------------------- Iteration    1(   1)  ---------------------------------------


    POTLOK:  cpu time    0.1080: real time    0.1090
    SETDIJ:  cpu time    0.0147: real time    0.0163
     EDDAV:  cpu time   21.8546: real time   21.8706
       DOS:  cpu time    0.0017: real time    0.0017
    --------------------------------------------
      LOOP:  cpu time   21.9818: real time   22.0022

 eigenvalue-minimisations  :  2908
 total energy-change (2. order) : 0.6029524E+04  (-0.1780427E+05)
 number of electron     464.0000000 magnetization 
 augmentation part      464.0000000 magnetization 

 Free energy of the ion-electron system (eV)
  ---------------------------------------------------
  alpha Z        PSCENC =       743.59862924
  Ewald energy   TEWEN  =    116770.28700638
  -Hartree energ DENC   =   -142625.40219406
  -exchange      EXHF   =         0.00000000
  -V(xc)+E(xc)   XCENC  =     -2528.39959630
  PAW double counting   =     26370.27066097   -22315.01029504
  entropy T*S    EENTRO =        -0.00362787
  eigenvalues    EBANDS =       840.94093576
  atomic energy  EATOM  =     28773.24216895
  Solvation  Ediel_sol  =         0.00000000
  ---------------------------------------------------
  free energy    TOTEN  =      6029.52368804 eV

  energy without entropy =     6029.52731591  energy(sigma->0) =     6029.52459501


--------------------------------------------------------------------------------------------------------




----------------------------------------- Iteration    1(   2)  ---------------------------------------


     EDDAV:  cpu time   21.9387: real time   21.9481
       DOS:  cpu time    0.0017: real time    0.0017
    --------------------------------------------
      LOOP:  cpu time   21.9419: real time   21.9524

 eigenvalue-minimisations  :  2930
 total energy-change (2. order) :-0.5112114E+04  (-0.4949040E+04)
 number of electron     464.0000000 magnetization 
 augmentation part      464.0000000 magnetization 

 Free energy of the ion-electron system (eV)
  ---------------------------------------------------
  alpha Z        PSCENC =       743.59862924
  Ewald energy   TEWEN  =    116770.28700638
  -Hartree energ DENC   =   -142625.40219406
  -exchange      EXHF   =         0.00000000
  -V(xc)+E(xc)   XCENC  =     -2528.39959630
  PAW double counting   =     26370.27066097   -22315.01029504
  entropy T*S    EENTRO =        -0.00535060
  eigenvalues    EBANDS =     -4271.17113291
  atomic energy  EATOM  =     28773.24216895
  Solvation  Ediel_sol  =         0.00000000
  ---------------------------------------------------
  free energy    TOTEN  =       917.40989665 eV

  energy without entropy =      917.41524725  energy(sigma->0) =      917.41123430


--------------------------------------------------------------------------------------------------------




----------------------------------------- Iteration    1(   3)  ---------------------------------------


     EDDAV:  cpu time   34.1913: real time   34.2051
       DOS:  cpu time    0.0017: real time    0.0017
    --------------------------------------------
      LOOP:  cpu time   34.1947: real time   34.2100

 eigenvalue-minimisations  :  5032
 total energy-change (2. order) :-0.1491245E+04  (-0.1446196E+04)
 number of electron     464.0000000 magnetization 
 augmentation part      464.0000000 magnetization 

 Free energy of the ion-electron system (eV)
  ---------------------------------------------------
  alpha Z        PSCENC =       743.59862924
  Ewald energy   TEWEN  =    116770.28700638
  -Hartree energ DENC   =   -142625.40219406
  -exchange      EXHF   =         0.00000000
  -V(xc)+E(xc)   XCENC  =     -2528.39959630
  PAW double counting   =     26370.27066097   -22315.01029504
  entropy T*S    EENTRO =        -0.00631436
  eigenvalues    EBANDS =     -5762.41484144
  atomic energy  EATOM  =     28773.24216895
  Solvation  Ediel_sol  =         0.00000000
  ---------------------------------------------------
  free energy    TOTEN  =      -573.83477564 eV

  energy without entropy =     -573.82846128  energy(sigma->0) =     -573.83319705


--------------------------------------------------------------------------------------------------------




----------------------------------------- Iteration    1(   4)  ---------------------------------------


     EDDAV:  cpu time   29.3806: real time   29.3923
       DOS:  cpu time    0.0017: real time    0.0017
    --------------------------------------------
      LOOP:  cpu time   29.3848: real time   29.3979

 eigenvalue-minimisations  :  4208
 total energy-change (2. order) :-0.2197018E+03  (-0.2134882E+03)
 number of electron     464.0000000 magnetization 
 augmentation part      464.0000000 magnetization 

 Free energy of the ion-electron system (eV)
  ---------------------------------------------------
  alpha Z        PSCENC =       743.59862924
  Ewald energy   TEWEN  =    116770.28700638
  -Hartree energ DENC   =   -142625.40219406
  -exchange      EXHF   =         0.00000000
  -V(xc)+E(xc)   XCENC  =     -2528.39959630
  PAW double counting   =     26370.27066097   -22315.01029504
  entropy T*S    EENTRO =        -0.00399529
  eigenvalues    EBANDS =     -5982.11892901
  atomic energy  EATOM  =     28773.24216895
  Solvation  Ediel_sol  =         0.00000000
  ---------------------------------------------------
  free energy    TOTEN  =      -793.53654414 eV

  energy without entropy =     -793.53254885  energy(sigma->0) =     -793.53554532


--------------------------------------------------------------------------------------------------------




----------------------------------------- Iteration    1(   5)  ---------------------------------------


     EDDAV:  cpu time   34.6571: real time   34.6727
       DOS:  cpu time    0.0017: real time    0.0017
    CHARGE:  cpu time    0.3504: real time    0.3508
    MIXING:  cpu time    0.0073: real time    0.0078
    --------------------------------------------
      LOOP:  cpu time   35.0188: real time   35.0367

 eigenvalue-minimisations  :  5112
 total energy-change (2. order) :-0.1814606E+02  (-0.1768917E+02)
 number of electron     463.9999887 magnetization 
 augmentation part       55.5387570 magnetization 

 Broyden mixing:
  rms(total) = 0.82755E+01    rms(broyden)= 0.82753E+01
  rms(prec ) = 0.87031E+01
  weight for this iteration     100.00

 Free energy of the ion-electron system (eV)
  ---------------------------------------------------
  alpha Z        PSCENC =       743.59862924
  Ewald energy   TEWEN  =    116770.28700638
  -Hartree energ DENC   =   -142625.40219406
  -exchange      EXHF   =         0.00000000
  -V(xc)+E(xc)   XCENC  =     -2528.39959630
  PAW double counting   =     26370.27066097   -22315.01029504
  entropy T*S    EENTRO =         0.00665910
  eigenvalues    EBANDS =     -6000.27564157
  atomic energy  EATOM  =     28773.24216895
  Solvation  Ediel_sol  =         0.00000000
  ---------------------------------------------------
  free energy    TOTEN  =      -811.68260231 eV

  energy without entropy =     -811.68926141  energy(sigma->0) =     -811.68426708


--------------------------------------------------------------------------------------------------------




----------------------------------------- Iteration    1(   6)  ---------------------------------------


    POTLOK:  cpu time    0.1007: real time    0.1007
    SETDIJ:  cpu time    0.0093: real time    0.0093
    EDDIAG:  cpu time    1.3886: real time    1.3894
  RMM-DIIS:  cpu time   24.8930: real time   24.9029
    ORTHCH:  cpu time    0.3517: real time    0.3520
       DOS:  cpu time    0.0017: real time    0.0017
    CHARGE:  cpu time    0.3503: real time    0.3503
    MIXING:  cpu time    0.0048: real time    0.0050
    --------------------------------------------
      LOOP:  cpu time   27.1021: real time   27.1150

 eigenvalue-minimisations  :  4565
 total energy-change (2. order) :-0.1871751E+02  (-0.1559516E+03)
 number of electron     463.9999921 magnetization 
 augmentation part       69.3239012 magnetization 

 Broyden mixing:
  rms(total) = 0.49959E+01    rms(broyden)= 0.49956E+01
  rms(prec ) = 0.65320E+01
  weight for this iteration     100.00

 eigenvalues of (default mixing * dielectric matrix)
  average eigenvalue GAMMA=   0.7903
  0.7903

 Free energy of the ion-electron system (eV)
  ---------------------------------------------------
  alpha Z        PSCENC =       743.59862924
  Ewald energy   TEWEN  =    116770.28700638
  -Hartree energ DENC   =   -143607.44054600
  -exchange      EXHF   =         0.00000000
  -V(xc)+E(xc)   XCENC  =     -2488.80869405
  PAW double counting   =     31344.52933997   -27299.76950275
  entropy T*S    EENTRO =        -0.01220593
  eigenvalues    EBANDS =     -5066.02630352
  atomic energy  EATOM  =     28773.24216895
  Solvation  Ediel_sol  =         0.00000000
  ---------------------------------------------------
  free energy    TOTEN  =      -830.40010769 eV

  energy without entropy =     -830.38790177  energy(sigma->0) =     -830.39705621


--------------------------------------------------------------------------------------------------------




----------------------------------------- Iteration    1(   7)  ---------------------------------------


    POTLOK:  cpu time    0.0972: real time    0.0972
    SETDIJ:  cpu time    0.0091: real time    0.0091
    EDDIAG:  cpu time    1.3251: real time    1.3258
  RMM-DIIS:  cpu time   22.5961: real time   22.6053
    ORTHCH:  cpu time    0.3490: real time    0.3493
       DOS:  cpu time    0.0017: real time    0.0017
    CHARGE:  cpu time    0.3591: real time    0.3591
    MIXING:  cpu time    0.0036: real time    0.0036
    --------------------------------------------
      LOOP:  cpu time   24.7432: real time   24.7548

 eigenvalue-minimisations  :  4145
 total energy-change (2. order) :-0.1152720E+02  (-0.4248477E+02)
 number of electron     463.9999916 magnetization 
 augmentation part       67.4290882 magnetization 

 Broyden mixing:
  rms(total) = 0.45525E+01    rms(broyden)= 0.45524E+01
  rms(prec ) = 0.78519E+01
  weight for this iteration     100.00

 eigenvalues of (default mixing * dielectric matrix)
  average eigenvalue GAMMA=   0.6828
  1.0086  0.3569

 Free energy of the ion-electron system (eV)
  ---------------------------------------------------
  alpha Z        PSCENC =       743.59862924
  Ewald energy   TEWEN  =    116770.28700638
  -Hartree energ DENC   =   -142852.19203057
  -exchange      EXHF   =         0.00000000
  -V(xc)+E(xc)   XCENC  =     -2494.56987992
  PAW double counting   =     32162.72623985   -28129.71455227
  entropy T*S    EENTRO =         0.02859741
  eigenvalues    EBANDS =     -5815.33348721
  atomic energy  EATOM  =     28773.24216895
  Solvation  Ediel_sol  =         0.00000000
  ---------------------------------------------------
  free energy    TOTEN  =      -841.92730813 eV

  energy without entropy =     -841.95590554  energy(sigma->0) =     -841.93445748


--------------------------------------------------------------------------------------------------------




----------------------------------------- Iteration    1(   8)  ---------------------------------------


    POTLOK:  cpu time    0.0968: real time    0.0968
    SETDIJ:  cpu time    0.0090: real time    0.0090
    EDDIAG:  cpu time    1.3745: real time    1.3750
  RMM-DIIS:  cpu time   24.2291: real time   24.2392
    ORTHCH:  cpu time    0.3492: real time    0.3492
       DOS:  cpu time    0.0018: real time    0.0018
    CHARGE:  cpu time    0.3434: real time    0.3434
    MIXING:  cpu time    0.0037: real time    0.0037
    --------------------------------------------
      LOOP:  cpu time   26.4094: real time   26.4217

 eigenvalue-minimisations  :  4457
 total energy-change (2. order) : 0.8984070E+02  (-0.2301818E+02)
 number of electron     463.9999918 magnetization 
 augmentation part       56.6104293 magnetization 

 Broyden mixing:
  rms(total) = 0.34927E+01    rms(broyden)= 0.34926E+01
  rms(prec ) = 0.49395E+01
  weight for this iteration     100.00

 eigenvalues of (default mixing * dielectric matrix)
  average eigenvalue GAMMA=   0.6578
  1.3018  0.4358  0.2358

 Free energy of the ion-electron system (eV)
  ---------------------------------------------------
  alpha Z        PSCENC =       743.59862924
  Ewald energy   TEWEN  =    116770.28700638
  -Hartree energ DENC   =   -143290.72649350
  -exchange      EXHF   =         0.00000000
  -V(xc)+E(xc)   XCENC  =     -2496.38498182
  PAW double counting   =     33182.48300419   -29153.76861537
  entropy T*S    EENTRO =         0.00117165
  eigenvalues    EBANDS =     -5280.81849967
  atomic energy  EATOM  =     28773.24216895
  Solvation  Ediel_sol  =         0.00000000
  ---------------------------------------------------
  free energy    TOTEN  =      -752.08660995 eV

  energy without entropy =     -752.08778160  energy(sigma->0) =     -752.08690286


--------------------------------------------------------------------------------------------------------




----------------------------------------- Iteration    1(   9)  ---------------------------------------


    POTLOK:  cpu time    0.0966: real time    0.0966
    SETDIJ:  cpu time    0.0091: real time    0.0091
    EDDIAG:  cpu time    1.3943: real time    1.3951
  RMM-DIIS:  cpu time   20.8667: real time   20.8759
    ORTHCH:  cpu time    0.3496: real time    0.3496
       DOS:  cpu time    0.0016: real time    0.0016
    CHARGE:  cpu time    0.3488: real time    0.3488
    MIXING:  cpu time    0.0039: real time    0.0039
    --------------------------------------------
      LOOP:  cpu time   23.0728: real time   23.0844

 eigenvalue-minimisations  :  3828
 total energy-change (2. order) : 0.3872358E+02  (-0.6645432E+01)
 number of electron     463.9999911 magnetization 
 augmentation part       58.4265744 magnetization 

 Broyden mixing:
  rms(total) = 0.20563E+01    rms(broyden)= 0.20563E+01
  rms(prec ) = 0.24080E+01
  weight for this iteration     100.00

 eigenvalues of (default mixing * dielectric matrix)
  average eigenvalue GAMMA=   0.7411
  1.6947  0.5269  0.5269  0.2161

 Free energy of the ion-electron system (eV)
  ---------------------------------------------------
  alpha Z        PSCENC =       743.59862924
  Ewald energy   TEWEN  =    116770.28700638
  -Hartree energ DENC   =   -143249.01255416
  -exchange      EXHF   =         0.00000000
  -V(xc)+E(xc)   XCENC  =     -2493.55190342
  PAW double counting   =     34346.57610216   -30310.75725305
  entropy T*S    EENTRO =         0.00351151
  eigenvalues    EBANDS =     -5293.74873683
  atomic energy  EATOM  =     28773.24216895
  Solvation  Ediel_sol  =         0.00000000
  ---------------------------------------------------
  free energy    TOTEN  =      -713.36302922 eV

  energy without entropy =     -713.36654073  energy(sigma->0) =     -713.36390710


--------------------------------------------------------------------------------------------------------




----------------------------------------- Iteration    1(  10)  ---------------------------------------


    POTLOK:  cpu time    0.0969: real time    0.0969
    SETDIJ:  cpu time    0.0091: real time    0.0091
    EDDIAG:  cpu time    1.4004: real time    1.4010
  RMM-DIIS:  cpu time   22.4781: real time   22.4876
    ORTHCH:  cpu time    0.3505: real time    0.3509
       DOS:  cpu time    0.0017: real time    0.0017
    CHARGE:  cpu time    0.3509: real time    0.3509
    MIXING:  cpu time    0.0043: real time    0.0043
    --------------------------------------------
      LOOP:  cpu time   24.6940: real time   24.7060

 eigenvalue-minimisations  :  4132
 total energy-change (2. order) : 0.4563815E+01  (-0.6973535E+01)
 number of electron     463.9999914 magnetization 
 augmentation part       63.3909161 magnetization 

 Broyden mixing:
  rms(total) = 0.13210E+01    rms(broyden)= 0.13210E+01
  rms(prec ) = 0.17364E+01
  weight for this iteration     100.00

 eigenvalues of (default mixing * dielectric matrix)
  average eigenvalue GAMMA=   0.7416
  1.9536  0.6356  0.5646  0.3536  0.2004

 Free energy of the ion-electron system (eV)
  ---------------------------------------------------
  alpha Z        PSCENC =       743.59862924
  Ewald energy   TEWEN  =    116770.28700638
  -Hartree energ DENC   =   -143370.20306897
  -exchange      EXHF   =         0.00000000
  -V(xc)+E(xc)   XCENC  =     -2487.71373631
  PAW double counting   =     35462.88344879   -31418.87509979
  entropy T*S    EENTRO =        -0.00276469
  eigenvalues    EBANDS =     -5182.01579791
  atomic energy  EATOM  =     28773.24216895
  Solvation  Ediel_sol  =         0.00000000
  ---------------------------------------------------
  free energy    TOTEN  =      -708.79921429 eV

  energy without entropy =     -708.79644960  energy(sigma->0) =     -708.79852312


--------------------------------------------------------------------------------------------------------




----------------------------------------- Iteration    1(  11)  ---------------------------------------


    POTLOK:  cpu time    0.0986: real time    0.0986
    SETDIJ:  cpu time    0.0091: real time    0.0091
    EDDIAG:  cpu time    1.3508: real time    1.3515
  RMM-DIIS:  cpu time   23.2126: real time   23.2221
    ORTHCH:  cpu time    0.3497: real time    0.3498
       DOS:  cpu time    0.0018: real time    0.0018
    CHARGE:  cpu time    0.3564: real time    0.3564
    MIXING:  cpu time    0.0043: real time    0.0043
    --------------------------------------------
      LOOP:  cpu time   25.3856: real time   25.3973

 eigenvalue-minimisations  :  4255
 total energy-change (2. order) : 0.2596332E+01  (-0.2976244E+01)
 number of electron     463.9999915 magnetization 
 augmentation part       62.7886363 magnetization 

 Broyden mixing:
  rms(total) = 0.92921E+00    rms(broyden)= 0.92920E+00
  rms(prec ) = 0.11510E+01
  weight for this iteration     100.00

 eigenvalues of (default mixing * dielectric matrix)
  average eigenvalue GAMMA=   0.7133
  1.9749  0.8237  0.4904  0.4904  0.2009  0.2995

 Free energy of the ion-electron system (eV)
  ---------------------------------------------------
  alpha Z        PSCENC =       743.59862924
  Ewald energy   TEWEN  =    116770.28700638
  -Hartree energ DENC   =   -143447.16434270
  -exchange      EXHF   =         0.00000000
  -V(xc)+E(xc)   XCENC  =     -2485.11832079
  PAW double counting   =     36429.18841770   -32383.19017523
  entropy T*S    EENTRO =         0.00457047
  eigenvalues    EBANDS =     -5107.05083614
  atomic energy  EATOM  =     28773.24216895
  Solvation  Ediel_sol  =         0.00000000
  ---------------------------------------------------
  free energy    TOTEN  =      -706.20288211 eV

  energy without entropy =     -706.20745257  energy(sigma->0) =     -706.20402472


--------------------------------------------------------------------------------------------------------




----------------------------------------- Iteration    1(  12)  ---------------------------------------


[...]
   0.729E+02 0.427E+02 -.220E+03   -.746E+02 -.400E+02 0.218E+03   0.168E+01 -.277E+01 0.111E+01   0.522E-03 0.354E-03 -.859E-03
   0.876E+01 0.795E+01 0.309E+03   -.856E+01 -.774E+01 -.309E+03   -.289E+00 -.282E+00 -.198E+00   -.803E-03 0.952E-03 -.108E-02
   -.184E+02 -.440E+00 0.490E+02   0.140E+02 0.102E+01 -.501E+02   0.439E+01 -.580E+00 0.104E+01   0.117E-02 -.189E-03 -.194E-02
   -.422E+02 0.554E+01 0.430E+03   0.415E+02 -.494E+01 -.428E+03   0.669E+00 -.100E+01 -.231E+01   0.710E-03 0.532E-03 0.265E-03
   -.332E+03 -.104E+02 0.100E+04   0.331E+03 0.110E+02 -.100E+04   0.376E+00 -.226E+00 0.974E+00   -.143E-02 -.112E-03 -.875E-02
   -.178E+03 -.434E+02 -.133E+04   0.176E+03 0.448E+02 0.133E+04   0.234E+01 -.144E+01 0.140E+01   -.141E-03 0.239E-02 -.575E-02
   0.854E+02 -.123E+02 0.204E+04   -.850E+02 0.112E+02 -.203E+04   -.584E+00 0.602E+00 -.441E+01   -.249E-02 -.264E-02 -.142E-02
   0.134E+03 0.413E+02 0.112E+03   -.135E+03 -.417E+02 -.110E+03   0.378E+00 0.397E+00 -.142E+01   -.172E-02 0.124E-02 -.137E-01
   -.532E+02 0.141E+03 0.211E+04   0.540E+02 -.141E+03 -.210E+04   -.606E+00 -.428E+00 -.274E+01   -.129E-02 -.569E-03 0.230E-03
   0.986E+02 0.668E+02 0.185E+03   -.981E+02 -.670E+02 -.185E+03   -.516E+00 0.215E+00 -.241E+00   0.119E-02 0.321E-02 -.688E-02
   -.341E+03 0.417E+01 0.127E+04   0.342E+03 -.517E+01 -.127E+04   -.885E+00 0.123E+01 -.141E+01   -.192E-02 0.994E-04 -.397E-02
   -.167E+03 0.165E+03 -.118E+04   0.169E+03 -.167E+03 0.118E+04   -.214E+01 0.161E+01 0.584E+00   0.291E-02 -.216E-02 -.496E-02
   0.272E+03 -.122E+03 0.196E+04   -.272E+03 0.123E+03 -.195E+04   0.276E+00 -.384E+00 -.425E+01   -.850E-03 0.182E-02 -.151E-02
   0.802E+02 -.119E+03 0.116E+03   -.787E+02 0.119E+03 -.116E+03   -.155E+01 0.362E-01 0.529E-01   -.436E-02 -.384E-02 -.109E-01
   -.184E+02 -.302E+01 0.389E+03   0.182E+02 0.311E+01 -.389E+03   0.602E+00 -.107E+00 0.262E+00   -.163E-03 -.161E-02 -.307E-02
   -.152E+02 -.378E+02 -.504E+03   0.149E+02 0.373E+02 0.503E+03   0.237E+00 0.554E+00 0.100E+01   0.158E-02 -.483E-03 -.219E-02
   0.150E+03 -.195E+02 0.397E+03   -.149E+03 0.195E+02 -.399E+03   -.139E+01 0.340E+00 0.863E+00   -.272E-03 0.114E-02 -.209E-02
   0.154E+03 0.530E+01 -.476E+03   -.153E+03 -.310E+01 0.477E+03   -.119E+01 -.220E+01 -.579E+00   -.152E-02 0.764E-03 -.326E-02
   0.350E+02 -.576E+02 0.104E+03   -.328E+02 0.581E+02 -.105E+03   -.215E+01 -.564E+00 0.125E+01   -.641E-03 -.558E-03 -.192E-02
   0.110E+03 -.543E+02 0.599E+03   -.109E+03 0.543E+02 -.596E+03   -.802E+00 -.140E+00 -.276E+01   0.801E-03 0.294E-03 0.758E-03
   -.912E+02 0.680E+02 0.855E+02   0.917E+02 -.673E+02 -.871E+02   -.521E+00 -.733E+00 0.162E+01   -.917E-04 0.109E-03 -.239E-02
   -.938E+02 0.604E+02 0.649E+03   0.932E+02 -.599E+02 -.645E+03   0.441E+00 -.525E+00 -.276E+01   -.919E-03 0.140E-02 -.150E-03
   0.621E+02 -.234E+02 0.326E+03   -.631E+02 0.227E+02 -.326E+03   0.102E+01 0.957E+00 -.748E+00   -.815E-03 0.880E-03 -.245E-02
   0.293E+02 -.118E+02 -.419E+03   -.299E+02 0.120E+02 0.419E+03   0.537E+00 -.254E+00 0.387E+00   -.654E-03 0.602E-03 -.177E-02
   -.149E+03 0.685E+01 -.321E+03   0.149E+03 -.805E+01 0.320E+03   -.202E+00 0.120E+01 0.120E+01   0.290E-03 0.246E-03 -.131E-02
   -.141E+03 0.724E+01 0.381E+03   0.140E+03 -.726E+01 -.382E+03   0.359E+00 -.247E+00 0.616E+00   0.587E-03 0.133E-02 -.143E-02
   -.141E+03 -.589E+01 0.616E+03   0.140E+03 0.585E+01 -.613E+03   0.799E+00 -.636E-01 -.258E+01   -.437E-03 -.165E-03 0.367E-03
   -.158E+03 0.364E+02 0.701E+02   0.157E+03 -.371E+02 -.719E+02   0.145E+01 0.650E+00 0.177E+01   0.380E-03 0.268E-03 -.175E-02
   0.684E+02 0.139E+02 0.344E+03   -.684E+02 -.135E+02 -.344E+03   0.599E-01 -.128E+00 -.131E+00   -.412E-03 -.751E-03 -.235E-02
   0.100E+03 0.230E+02 -.407E+03   -.992E+02 -.222E+02 0.406E+03   -.987E+00 -.834E+00 0.109E+01   0.130E-02 -.598E-03 -.173E-02
   0.522E+02 -.531E+01 0.545E+02   -.522E+02 0.546E+01 -.549E+02   0.275E-01 -.151E+00 0.448E+00   -.730E-03 -.432E-03 -.262E-02
   0.309E+02 -.748E-01 0.624E+03   -.316E+02 -.315E-02 -.622E+03   0.597E+00 0.176E-01 -.249E+01   -.808E-03 0.693E-03 0.451E-04
   0.108E+03 0.521E+01 0.340E+03   -.108E+03 -.532E+01 -.340E+03   -.955E+00 0.681E+00 -.220E+00   -.410E-03 -.968E-03 -.211E-02
   0.827E+02 0.201E+02 -.421E+03   -.813E+02 -.187E+02 0.420E+03   -.138E+01 -.137E+01 0.122E+01   -.115E-02 0.633E-03 -.234E-02
   0.101E+03 0.195E+02 0.418E+03   -.101E+03 -.194E+02 -.419E+03   0.215E+00 -.419E+00 0.160E+01   0.885E-04 -.984E-03 -.173E-02
   0.802E+02 -.490E+02 -.405E+03   -.820E+02 0.488E+02 0.405E+03   0.174E+01 0.129E+00 0.926E+00   -.135E-02 -.545E-03 -.247E-02
   0.119E+03 0.370E+02 0.572E+03   -.119E+03 -.368E+02 -.569E+03   0.161E+00 -.520E+00 -.304E+01   0.652E-03 -.178E-03 -.173E-03
   0.113E+03 0.844E+02 0.722E+02   -.113E+03 -.849E+02 -.731E+02   0.218E+00 0.551E+00 0.939E+00   -.573E-03 0.337E-03 -.335E-02
   -.912E+02 -.837E+00 0.620E+03   0.914E+02 0.884E+00 -.616E+03   -.387E+00 -.172E-01 -.301E+01   0.280E-03 0.125E-03 -.260E-03
   -.817E+02 -.353E+02 0.640E+02   0.812E+02 0.367E+02 -.640E+02   0.443E+00 -.147E+01 0.880E-01   0.802E-03 -.247E-03 -.261E-02
   0.121E+03 0.307E+02 0.590E+03   -.120E+03 -.309E+02 -.587E+03   -.229E+00 0.337E+00 -.258E+01   0.274E-03 -.461E-03 0.177E-04
   0.823E+02 -.384E+01 0.649E+02   -.815E+02 0.458E+01 -.662E+02   -.735E+00 -.735E+00 0.130E+01   -.123E-02 0.588E-03 -.320E-02
   0.252E+02 -.138E+02 -.418E+03   -.248E+02 0.119E+02 0.417E+03   -.424E+00 0.197E+01 0.178E+01   -.140E-02 -.620E-03 -.152E-02
   0.101E+03 0.944E+00 0.370E+03   -.102E+03 -.126E+01 -.370E+03   0.539E+00 0.276E+00 -.187E+00   -.443E-03 0.727E-03 -.153E-02
   0.425E+02 -.732E+01 0.385E+03   -.425E+02 0.730E+01 -.386E+03   0.147E+00 0.264E+00 0.485E+00   0.188E-03 -.329E-03 -.108E-02
   -.226E+02 0.319E+02 -.421E+03   0.218E+02 -.326E+02 0.419E+03   0.807E+00 0.740E+00 0.197E+01   0.230E-03 0.468E-03 -.213E-02
   -.348E+02 -.117E+01 0.579E+03   0.352E+02 0.148E+01 -.576E+03   -.759E-01 -.261E+00 -.305E+01   0.553E-03 -.609E-03 0.318E-03
   -.105E+03 0.333E+02 0.125E+03   0.105E+03 -.338E+02 -.125E+03   0.381E+00 0.526E+00 0.422E+00   0.140E-02 0.269E-03 -.243E-02
   0.505E+02 -.488E+01 0.562E+03   -.504E+02 0.414E+01 -.558E+03   -.206E-01 0.230E+00 -.312E+01   0.753E-03 0.418E-03 0.475E-03
   0.517E+02 0.267E+02 0.315E+02   -.514E+02 -.270E+02 -.311E+02   -.270E+00 0.282E+00 -.420E+00   0.472E-03 -.303E-03 -.239E-02
   -.543E+02 -.159E+01 0.373E+03   0.545E+02 0.174E+01 -.373E+03   -.172E+00 0.639E+00 -.215E+00   0.808E-03 -.303E-03 -.116E-02
   -.429E+02 -.651E+02 -.435E+03   0.445E+02 0.647E+02 0.433E+03   -.163E+01 0.350E+00 0.225E+01   0.685E-03 0.107E-03 -.176E-02
   0.390E+02 0.317E+01 0.577E+03   -.384E+02 -.302E+01 -.573E+03   -.856E+00 -.278E+00 -.343E+01   0.580E-03 -.413E-03 0.716E-03
   0.562E+02 -.785E+02 0.704E+02   -.560E+02 0.792E+02 -.704E+02   -.170E+00 -.723E+00 0.578E-01   0.118E-03 0.314E-03 -.236E-02
   -.846E+02 0.157E+01 0.342E+03   0.843E+02 -.162E+01 -.342E+03   0.424E+00 -.239E+00 -.139E+01   0.147E-02 0.344E-03 -.113E-02
   -.117E+03 0.338E-01 -.497E+03   0.114E+03 -.571E+00 0.495E+03   0.247E+01 0.540E+00 0.146E+01   0.879E-03 -.484E-03 -.108E-02
   0.520E+02 0.405E+02 -.383E+03   -.515E+02 -.403E+02 0.383E+03   -.498E+00 -.185E+00 -.557E+00   0.232E-03 -.339E-03 -.206E-02
   0.435E+02 0.263E+01 0.367E+03   -.428E+02 -.274E+01 -.367E+03   -.551E+00 0.249E+00 -.488E+00   0.530E-03 0.524E-03 -.937E-03
   -.136E+03 -.435E+02 0.644E+03   0.135E+03 0.429E+02 -.640E+03   0.904E+00 0.456E-01 -.337E+01   -.755E-03 -.115E-02 -.161E-03
   -.604E+02 -.525E+02 0.598E+02   0.604E+02 0.519E+02 -.595E+02   0.288E-01 0.563E+00 -.392E+00   -.570E-03 0.169E-03 -.242E-02
   -.132E+03 0.430E+01 0.354E+03   0.131E+03 -.442E+01 -.355E+03   0.423E+00 0.453E+00 -.875E-03   0.540E-03 -.112E-02 -.144E-02
   -.992E+02 -.266E+02 -.465E+03   0.978E+02 0.273E+02 0.464E+03   0.143E+01 -.775E+00 0.123E+01   0.307E-03 -.351E-04 -.131E-02
   0.969E+02 0.297E+02 -.683E+03   -.979E+02 -.305E+02 0.689E+03   0.952E+00 0.854E+00 -.523E+01   -.310E-02 -.316E-02 -.296E-02
   -.102E+03 0.404E+02 -.989E+03   0.103E+03 -.452E+02 0.101E+04   -.702E+00 0.483E+01 -.163E+02   0.712E-03 0.945E-03 -.111E-02
   0.157E+03 0.275E+02 -.636E+03   -.158E+03 -.280E+02 0.641E+03   0.540E-01 0.522E+00 -.540E+01   -.387E-02 0.275E-02 -.421E-02
   -.946E+02 0.550E+01 -.843E+03   0.948E+02 -.401E+01 0.855E+03   -.237E+00 -.148E+01 -.124E+02   0.306E-02 -.382E-03 -.869E-03
   0.879E+02 -.376E+01 -.940E+03   -.880E+02 0.531E+01 0.961E+03   0.771E-01 -.155E+01 -.210E+02   -.861E-03 -.102E-02 -.307E-02
   0.101E+03 -.178E+01 -.999E+03   -.102E+03 0.140E+01 0.102E+04   0.138E+01 0.381E+00 -.210E+02   -.518E-02 0.251E-02 0.414E-03
   -.103E+03 -.137E+03 -.109E+04   0.105E+03 0.136E+03 0.112E+04   -.199E+01 0.127E+01 -.214E+02   0.237E-04 -.245E-02 -.204E-02
   0.820E+02 -.211E+01 -.105E+04   -.844E+02 0.440E+01 0.107E+04   0.239E+01 -.229E+01 -.216E+02   0.273E-02 0.485E-03 0.261E-02
   0.241E+02 -.386E+02 -.977E+03   -.214E+02 0.352E+02 0.996E+03   -.268E+01 0.346E+01 -.191E+02   -.731E-03 -.114E-02 -.139E-02
   0.883E+02 0.215E+02 -.981E+03   -.904E+02 -.166E+02 0.999E+03   0.210E+01 -.498E+01 -.175E+02   0.399E-02 -.433E-03 0.157E-03
   0.913E+02 -.295E+02 -.920E+03   -.914E+02 0.314E+02 0.941E+03   0.158E+00 -.189E+01 -.204E+02   -.912E-03 0.296E-02 0.577E-03
   -.166E+03 -.259E+02 -.110E+04   0.162E+03 0.315E+02 0.111E+04   0.449E+01 -.564E+01 -.194E+02   -.151E-03 -.235E-02 0.314E-03
   -.314E+03 -.360E+02 -.617E+03   0.317E+03 0.397E+02 0.621E+03   -.312E+01 -.370E+01 -.394E+01   -.149E-02 0.170E-02 -.185E-02
   0.160E+03 0.621E+02 -.109E+04   -.161E+03 -.660E+02 0.112E+04   0.968E+00 0.389E+01 -.242E+02   0.409E-02 -.637E-03 -.232E-03
   -.322E+02 0.818E+02 -.510E+03   0.351E+02 -.856E+02 0.517E+03   -.290E+01 0.381E+01 -.640E+01   -.172E-02 0.216E-02 -.126E-02
   0.694E+02 -.455E+02 -.224E+03   -.693E+02 0.464E+02 0.223E+03   -.167E+00 -.893E+00 0.129E+01   -.166E-02 -.800E-03 -.439E-02
   -.101E+03 -.121E+02 -.235E+03   0.972E+02 0.105E+02 0.236E+03   0.419E+01 0.159E+01 -.147E+01   0.127E-02 0.192E-03 -.359E-02
   0.107E+03 -.215E+02 0.874E+02   -.108E+03 0.234E+02 -.870E+02   0.789E+00 -.186E+01 -.415E+00   0.323E-03 0.759E-03 -.328E-02
   -.148E+03 -.281E+02 -.279E+02   0.149E+03 0.291E+02 0.252E+02   -.852E+00 -.992E+00 0.273E+01   0.163E-02 0.622E-03 -.291E-02
   0.242E+03 0.480E+02 0.112E+03   -.244E+03 -.496E+02 -.116E+03   0.243E+01 0.165E+01 0.398E+01   0.773E-03 -.698E-03 -.253E-02
 -----------------------------------------------------------------------------------------------
   -.125E+02 0.670E+01 0.252E+03   0.568E-13 -.277E-12 -.566E-11   0.126E+02 -.671E+01 -.252E+03   -.918E-02 0.152E-02 -.169E+00
 
 
 POSITION                                       TOTAL-FORCE (eV/Angst)
 -----------------------------------------------------------------------------------
      8.57631      8.29685     10.39845        -0.055565     -0.161137      0.003344
      8.51797      3.83749     15.12579        -0.006790     -0.002482     -0.006453
      8.10318      6.07389     17.25591         0.002912      0.009046      0.007209
      8.51616      0.79995     12.43874        -0.089603     -0.075828      0.000428
     13.32170      6.09603     15.09952        -0.001126     -0.000535     -0.004027
     13.49094      1.15316     10.44749        -0.040253     -0.397862     -0.049724
     10.03344      3.28428     12.67411         0.114682      0.349912     -0.515324
      9.98802      8.10962     17.52477        -0.001615      0.002044      0.002522
      7.12524      5.81577     10.15765        -0.184115     -0.506733      0.898016
      7.01621      1.23247     15.14114        -0.000641      0.000544     -0.000815
      8.51222      3.28036     10.20450         0.200000      0.082669      0.813674
      8.52817      8.33589     15.02234         0.001145     -0.001813     -0.000321
     10.22263      8.06723     12.77991         0.327079      0.227608      0.038420
     10.21631      3.79051     17.56161         0.001126      0.003045      0.005271
      5.42664      8.10481     10.20639         0.246779      0.120943      0.972249
      5.63971      3.55326     15.09311         0.002227     -0.001536      0.007017
      8.52843      5.75423     12.65640         0.391396     -0.017711      0.039093
      8.71859      1.19311     17.60898        -0.017629      0.014270     -0.023211
      3.84829      7.97317     12.47259        -0.365809      0.298269     -0.351446
      3.74966      3.44819     17.26984         0.001257      0.001977     -0.003178
      3.77323      5.55287     14.95749         0.001947      0.000769     -0.005878
      3.90063      0.73891     10.00000         0.528223     -0.138032      0.269511
     10.17972      6.05292     15.16432         0.002180      0.003860      0.002671
     10.19112      1.10470     10.13736        -0.149285     -0.019307      0.392418
      6.82945      7.99424     12.66670         0.012172      0.282539     -0.317806
      6.79985      3.53915     17.65853        -0.000076      0.011740      0.003252
     11.95689      6.22981     17.42942        -0.001357      0.004339     -0.004812
     11.66772      1.05372     12.57547        -0.405723     -0.265127     -0.720466
     11.73919      3.33868     10.41199        -0.234112     -0.099775      0.613008
     11.80887      8.37752     15.26770         0.004613      0.001732     -0.001412
      7.18522      3.24644     12.75390         0.058625      0.201032     -0.280008
      7.20740      8.55547     17.54033         0.004652      0.002102      0.002275
      6.83326      6.06212     14.83842         0.000337      0.000908      0.002270
      6.87795      0.97560     10.08695        -0.090388     -0.059658      0.237104
      5.51084      5.55012     12.48419        -0.492892      0.564863     -0.220500
      5.48787      1.02892     17.57612        -0.003432     -0.001841      0.002249
      3.51249      3.50019     12.83519         0.041570     -0.292248      0.021269
      3.17414      8.79559     17.55727         0.001644      0.003738      0.000505
      3.46798      5.87237     10.40868         0.020175     -0.309356     -0.184225
      3.53020      1.28997     15.11434         0.000677      0.004441     -0.000154
     11.91771      8.21633     10.24534        -0.265779      0.029468      0.774263
     11.90462      3.50308     15.24517         0.000570      0.000599      0.001617
      5.24135      3.36543     10.32679         0.113772      0.097792      0.118630
      5.14910      8.28907     15.17077        -0.002568      0.000146     -0.002109
      5.15848      6.23494     17.51749        -0.001820     -0.001948      0.001567
      5.28930      0.99064     12.60849         0.316540     -0.035379     -0.393390
      1.60538      5.84491     12.85122         0.164397      0.239461     -0.753828
      1.34577      1.55082     17.61659        -0.009484      0.004868      0.002746
     13.72038      5.67134     10.18293         0.272385      0.043430      0.498269
      0.10594      1.01006     14.87308         0.002423     -0.000605     -0.000472
      1.63456      8.33987     10.36453         0.073997     -0.517352      0.141124
      1.37176      3.70967     15.29194         0.002212      0.002880     -0.000297
     13.76831      3.16119     12.53308         0.054012      0.783190     -0.478566
      0.37424      8.24428     17.85188        -0.002005      0.000116     -0.001572
      1.99440      3.17314     10.17666        -0.233693     -0.131421      0.569219
      1.83735      8.12282     15.14060        -0.000884     -0.000683     -0.003175
     13.48051      8.37930     12.86886         0.063657     -0.287537     -1.143758
     13.26658      3.95369     18.11290         0.001242      0.002889      0.000587
      1.96990      5.90981     17.43918        -0.000080      0.002695      0.001919
      2.02729      0.87737     12.46815         0.156468      0.142491     -0.650920
     10.07171      5.79402     10.14663         0.173935     -0.573613      0.195660
      9.91380      1.26795     14.99695        -0.000717     -0.002971      0.000245
     11.97051      5.66181     12.67660        -0.688253      0.331093     -0.555607
     11.83781      1.15930     17.72467        -0.001105      0.003069      0.003757
      5.19730      8.47258     17.58780        -0.006883      0.000117     -0.003129
     13.46595      2.02593     18.89601         0.002250      0.000322     -0.000285
      3.46453      1.26539     17.51770        -0.002580     -0.001670      0.003289
      0.02041      6.08413     18.38991         0.002860      0.003261     -0.006285
      3.68540      5.07526     18.45624        -0.001688      0.001582     -0.002456
      5.26389      2.82658     18.51145        -0.002677      0.000737      0.003683
     10.18346      0.23759     18.67357         0.000378      0.001492      0.002925
      7.05029      0.63607     18.67016        -0.002047      0.000713      0.005724
      2.22230      7.64997     18.75886        -0.002803      0.002537      0.003855
      8.52455      3.07194     18.40146        -0.001761      0.002470     -0.000051
      6.85503      5.31102     18.36045        -0.004096      0.000005      0.008008
     11.48804      4.77478     18.77002         0.002901     -0.000557      0.003463
     12.04916      8.36280     17.51106        -0.001880      0.002380      0.000760
      8.34838      7.45689     18.54409        -0.005459      0.003765     -0.003635
      9.93077      5.99844     17.31729        -0.001965      0.002380      0.005045
      3.51656      7.11526     16.30401         0.001765      0.003156      0.000210
     13.64536      2.63104     16.38296        -0.001666      0.002061      0.001799
      1.66625      5.87889     15.13149         0.004086     -0.000633      0.000619
     11.90294      0.88564     15.63231        -0.000514      0.001302      0.004850
      3.50755      3.50118     14.98547         0.007550      0.000490      0.001690
 -----------------------------------------------------------------------------------
    total drift:                                0.009050     -0.000450     -0.002625


--------------------------------------------------------------------------------------------------------



  FREE ENERGIE OF THE ION-ELECTRON SYSTEM (eV)
  ---------------------------------------------------
  free  energy   TOTEN  =      -703.55201050 eV

  energy  without entropy=     -703.56173204  energy(sigma->0) =     -703.55444088
 


--------------------------------------------------------------------------------------------------------


    POTLOK:  cpu time    0.1140: real time    0.1149


--------------------------------------------------------------------------------------------------------


     LOOP+:  cpu time  856.8020: real time  857.3032
    4ORBIT:  cpu time    0.0000: real time    0.0000

 total amount of memory used by VASP on root node   138240. kBytes
========================================================================

   base      :      30000. kBytes
   nonl-proj :      28739. kBytes
   fftplans  :       6516. kBytes
   grid      :      15878. kBytes
   one-center:         62. kBytes
   wavefun   :      57045. kBytes
 
  
  
 General timing and accounting informations for this job:
 ========================================================
  
                  Total CPU time used (sec):      875.018
                            User time (sec):      871.442
                          System time (sec):        3.577
                         Elapsed time (sec):      875.551
  
                   Maximum memory used (kb):      172460.
                   Average memory used (kb):           0.
  
                          Minor page faults:        52286
                          Major page faults:            0
                 Voluntary context switches:         1447
