 vasp.5.4.1 05Feb16 (build Mar 19 2020 08:54:17) complex                        
  
 executed on           IFC91_ompi date 2021.11.06  00:10:56
 running on   48 total cores
 distrk:  each k-point on   48 cores,    1 groups
 distr:  one band on NCORES_PER_BAND=  24 cores,    2 groups


--------------------------------------------------------------------------------------------------------


 INCAR:
 POTCAR:    PAW_PBE Al 04Jan2001                  
 POTCAR:    PAW_PBE Nb_sv 25May2007               
 POTCAR:    PAW_PBE Ta 17Jan2003                  
 POTCAR:    PAW_PBE Ti 08Apr2002                  
 POTCAR:   PAW_PBE Zr 08Apr2002                   
 POTCAR:    PAW_PBE O 08Apr2002                   

 ----------------------------------------------------------------------------- 
|                                                                             |
|           W    W    AA    RRRRR   N    N  II  N    N   GGGG   !!!           |
|           W    W   A  A   R    R  NN   N  II  NN   N  G    G  !!!           |
|           W    W  A    A  R    R  N N  N  II  N N  N  G       !!!           |
|           W WW W  AAAAAA  RRRRR   N  N N  II  N  N N  G  GGG   !            |
|           WW  WW  A    A  R   R   N   NN  II  N   NN  G    G                |
|           W    W  A    A  R    R  N    N  II  N    N   GGGG   !!!           |
|                                                                             |
|      For optimal performance we recommend to set                            |
|        NCORE= 4 - approx SQRT( number of cores)                             |
|      NCORE specifies how many cores store one orbital (NPAR=cpu/NCORE).     |
|      This setting can  greatly improve the performance of VASP for DFT.     |
|      The default, NPAR=number of cores might be grossly inefficient         |
|      on modern multi-core architectures or massively parallel machines.     |
|      Do your own testing !!!!                                               |
|      Unfortunately you need to use the default for GW and RPA calculations. |
|      (for HF NCORE is supported but not extensively tested yet)             |
|                                                                             |
 ----------------------------------------------------------------------------- 

 POTCAR:    PAW_PBE Al 04Jan2001                  
   VRHFIN =Al: s2p1                                                             
   LEXCH  = PE                                                                  
   EATOM  =    53.5387 eV,    3.9350 Ry                                         
                                                                                
   TITEL  = PAW_PBE Al 04Jan2001                                                
   LULTRA =        F    use ultrasoft PP ?                                      
   IUNSCR =        1    unscreen: 0-lin 1-nonlin 2-no                           
   RPACOR =    1.500    partial core radius                                     
   POMASS =   26.981; ZVAL   =    3.000    mass and valenz                      
   RCORE  =    1.900    outmost cutoff radius                                   
   RWIGS  =    2.650; RWIGS  =    1.402    wigner-seitz radius (au A)           
   ENMAX  =  240.300; ENMIN  =  180.225 eV                                      
   ICORE  =        2    local potential                                         
   LCOR   =        T    correct aug charges                                     
   LPAW   =        T    paw PP                                                  
   EAUG   =  291.052                                                            
   DEXC   =    0.000                                                            
   RMAX   =    1.939    core radius for proj-oper                               
   RAUG   =    1.300    factor for augmentation sphere                          
   RDEP   =    1.966    radius for radial grids                                 
   RDEPT  =    1.856    core radius for aug-charge                              
                                                                                
   Atomic configuration                                                         
    6 entries                                                                   
     n  l   j            E        occ.                                          
     1  0  0.50     -1511.1048   2.0000                                         
     2  0  0.50      -108.1629   2.0000                                         
     2  1  1.50       -69.6402   6.0000                                         
     3  0  0.50        -7.7528   2.0000                                         
     3  1  1.50        -2.7121   1.0000                                         
     3  2  2.50        -2.7212   0.0000                                         
   Description                                                                  
     l       E           TYP  RCUT    TYP  RCUT                                 
     0     -7.7528455     23  1.900                                             
     0     -3.3096929     23  1.900                                             
     1     -2.7120682     23  1.900                                             
     1     13.6058260     23  1.900                                             
     2     -2.7211652      7  1.900                                             
  local pseudopotential read in
  partial core-charges read in
  partial kinetic energy density read in
  atomic valenz-charges read in
  non local Contribution for L=           0  read in
    real space projection operators read in
  non local Contribution for L=           0  read in
    real space projection operators read in
  non local Contribution for L=           1  read in
    real space projection operators read in
  non local Contribution for L=           1  read in
    real space projection operators read in
    PAW grid and wavefunctions read in
 
   number of l-projection  operators is LMAX  =           4
   number of lm-projection operators is LMMAX =           8
 
 POTCAR:    PAW_PBE Nb_sv 25May2007               
   VRHFIN =Nb: 4p5s4d                                                           
   LEXCH  = PE                                                                  
   EATOM  =  1555.1913 eV,  114.3033 Ry                                         
                                                                                
   TITEL  = PAW_PBE Nb_sv 25May2007                                             
   LULTRA =        F    use ultrasoft PP ?                                      
   IUNSCR =        1    unscreen: 0-lin 1-nonlin 2-no                           
   RPACOR =    1.800    partial core radius                                     
   POMASS =   92.910; ZVAL   =   13.000    mass and valenz                      
   RCORE  =    2.400    outmost cutoff radius                                   
   RWIGS  =    2.400; RWIGS  =    1.270    wigner-seitz radius (au A)           
   ENMAX  =  293.235; ENMIN  =  219.927 eV                                      
   ICORE  =        3    local potential                                         
   LCOR   =        T    correct aug charges                                     
   LPAW   =        T    paw PP                                                  
   EAUG   =  455.659                                                            
   DEXC   =    0.000                                                            
   RMAX   =    2.456    core radius for proj-oper                               
   RAUG   =    1.300    factor for augmentation sphere                          
   RDEP   =    2.451    radius for radial grids                                 
   RDEPT  =    1.956    core radius for aug-charge                              
                                                                                
   Atomic configuration                                                         
   11 entries                                                                   
     n  l   j            E        occ.                                          
     1  0  0.50    -18805.2457   2.0000                                         
     2  0  0.50     -2630.2869   2.0000                                         
     2  1  1.50     -2348.4046   6.0000                                         
     3  0  0.50      -438.8757   2.0000                                         
     3  1  1.50      -346.7588   6.0000                                         
     3  2  2.50      -196.2560  10.0000                                         
     4  0  0.50       -58.3859   2.0000                                         
     5  0  0.50        -3.9816   1.0000                                         
     4  1  1.50       -34.5141   6.0000                                         
     4  2  2.50        -3.0408   4.0000                                         
     4  3  2.50        -1.3606   0.0000                                         
   Description                                                                  
     l       E           TYP  RCUT    TYP  RCUT                                 
     0    -58.3859094     23  2.200                                             
     0     -3.9816262     23  2.200                                             
     1    -34.5140738     23  2.200                                             
     1     13.6058260     23  2.200                                             
     2     -3.0408010     23  2.200                                             
     2     -0.1283038     23  2.200                                             
     3     -1.3605826     23  2.400                                             
  local pseudopotential read in
  partial core-charges read in
  partial kinetic energy density read in
  atomic valenz-charges read in
  non local Contribution for L=           0  read in
    real space projection operators read in
  non local Contribution for L=           0  read in
    real space projection operators read in
  non local Contribution for L=           1  read in
    real space projection operators read in
  non local Contribution for L=           1  read in
    real space projection operators read in
  non local Contribution for L=           2  read in
    real space projection operators read in
  non local Contribution for L=           2  read in
    real space projection operators read in
    PAW grid and wavefunctions read in
 
   number of l-projection  operators is LMAX  =           6
   number of lm-projection operators is LMMAX =          18
 
 POTCAR:    PAW_PBE Ta 17Jan2003                  
   VRHFIN =Ta:  6s5d                                                            
   LEXCH  = PE                                                                  
   EATOM  =   130.6506 eV,    9.6025 Ry                                         
                                                                                
   TITEL  = PAW_PBE Ta 17Jan2003                                                
   LULTRA =        F    use ultrasoft PP ?                                      
   IUNSCR =        1    unscreen: 0-lin 1-nonlin 2-no                           
   RPACOR =    2.330    partial core radius                                     
   POMASS =  180.948; ZVAL   =    5.000    mass and valenz                      
   RCORE  =    2.900    outmost cutoff radius                                   
   RWIGS  =    2.840; RWIGS  =    1.503    wigner-seitz radius (au A)           
   ENMAX  =  223.667; ENMIN  =  167.750 eV                                      
   RCLOC  =    2.205    cutoff for local pot                                    
   LCOR   =        T    correct aug charges                                     
   LPAW   =        T    paw PP                                                  
   EAUG   =  332.075                                                            
   DEXC   =    0.000                                                            
   RMAX   =    2.970    core radius for proj-oper                               
   RAUG   =    1.300    factor for augmentation sphere                          
   RDEP   =    3.060    radius for radial grids                                 
   RDEPT  =    2.354    core radius for aug-charge                              
                                                                                
   Atomic configuration                                                         
   16 entries                                                                   
     n  l   j            E        occ.                                          
     1  0  0.50    -67341.2807   2.0000                                         
     2  0  0.50    -11566.9376   2.0000                                         
     2  1  1.50    -10134.1182   6.0000                                         
     3  0  0.50     -2648.5620   2.0000                                         
     3  1  1.50     -2222.6012   6.0000                                         
     3  2  2.50     -1726.3120  10.0000                                         
     4  0  0.50      -538.6961   2.0000                                         
     4  1  1.50      -399.0129   6.0000                                         
     4  2  2.50      -220.3959  10.0000                                         
     4  3  3.50       -23.0374  14.0000                                         
     5  0  0.50       -71.2901   2.0000                                         
     5  1  1.50       -37.8225   6.0000                                         
     5  2  2.50        -2.6455   4.0000                                         
     6  0  0.50        -4.9623   1.0000                                         
     6  1  1.50        -1.3606   0.0000                                         
     5  3  2.50        -1.3606   0.0000                                         
   Description                                                                  
     l       E           TYP  RCUT    TYP  RCUT                                 
     2     -2.6455043     23  2.500                                             
     2     -0.6258895     23  2.500                                             
     0     -4.9622780     23  2.500                                             
     0      4.7531321     23  2.500                                             
     1     -1.3605826     23  2.900                                             
     1     27.2116520     23  2.900                                             
  local pseudopotential read in
  partial core-charges read in
  partial kinetic energy density read in
  atomic valenz-charges read in
  non local Contribution for L=           2  read in
    real space projection operators read in
  non local Contribution for L=           2  read in
    real space projection operators read in
  non local Contribution for L=           0  read in
    real space projection operators read in
  non local Contribution for L=           0  read in
    real space projection operators read in
  non local Contribution for L=           1  read in
    real space projection operators read in
  non local Contribution for L=           1  read in
    real space projection operators read in
    PAW grid and wavefunctions read in
 
   number of l-projection  operators is LMAX  =           6
   number of lm-projection operators is LMMAX =          18
 
 POTCAR:    PAW_PBE Ti 08Apr2002                  
   VRHFIN =Ti: d3 s1                                                            
   LEXCH  = PE                                                                  
   EATOM  =    94.7928 eV,    6.9671 Ry                                         
                                                                                
   TITEL  = PAW_PBE Ti 08Apr2002                                                
   LULTRA =        F    use ultrasoft PP ?                                      
   IUNSCR =        1    unscreen: 0-lin 1-nonlin 2-no                           
   RPACOR =    2.200    partial core radius                                     
   POMASS =   47.880; ZVAL   =    4.000    mass and valenz                      
   RCORE  =    2.800    outmost cutoff radius                                   
   RWIGS  =    2.500; RWIGS  =    1.323    wigner-seitz radius (au A)           
   ENMAX  =  178.330; ENMIN  =  133.747 eV                                      
   RCLOC  =    2.215    cutoff for local pot                                    
   LCOR   =        T    correct aug charges                                     
   LPAW   =        T    paw PP                                                  
   EAUG   =  328.883                                                            
   DEXC   =    0.000                                                            
   RMAX   =    2.868    core radius for proj-oper                               
   RAUG   =    1.300    factor for augmentation sphere                          
   RDEP   =    2.885    radius for radial grids                                 
   RDEPT  =    2.320    core radius for aug-charge                              
                                                                                
   Atomic configuration                                                         
    9 entries                                                                   
     n  l   j            E        occ.                                          
     1  0  0.50     -4865.3608   2.0000                                         
     2  0  0.50      -533.1367   2.0000                                         
     2  1  1.50      -440.5031   6.0000                                         
     3  0  0.50       -59.3186   2.0000                                         
     3  1  1.50       -35.7012   6.0000                                         
     3  2  2.50        -1.9157   3.0000                                         
     4  0  0.50        -3.7291   1.0000                                         
     4  1  1.50        -4.0817   0.0000                                         
     4  3  2.50        -1.3606   0.0000                                         
   Description                                                                  
     l       E           TYP  RCUT    TYP  RCUT                                 
     2     -1.9156924     23  2.800                                             
     2     -0.4062961     23  2.800                                             
     0     -3.7290832     23  2.800                                             
     0     20.4087390     23  2.800                                             
     1     -5.4423304     23  2.800                                             
  local pseudopotential read in
  partial core-charges read in
  partial kinetic energy density read in
  atomic valenz-charges read in
  non local Contribution for L=           2  read in
    real space projection operators read in
  non local Contribution for L=           2  read in
    real space projection operators read in
  non local Contribution for L=           0  read in
    real space projection operators read in
  non local Contribution for L=           0  read in
    real space projection operators read in
  non local Contribution for L=           1  read in
    real space projection operators read in
    PAW grid and wavefunctions read in
 
   number of l-projection  operators is LMAX  =           5
   number of lm-projection operators is LMMAX =          15
 
 POTCAR:   PAW_PBE Zr 08Apr2002                   
   VRHFIN =Zr: 5s4d5p                                                           
   LEXCH  = PE                                                                  
   EATOM  =    77.8472 eV,    5.7216 Ry                                         
                                                                                
   TITEL  = PAW_PBE Zr 08Apr2002                                                
   LULTRA =        F    use ultrasoft PP ?                                      
   IUNSCR =        1    unscreen: 0-lin 1-nonlin 2-no                           
   RPACOR =    2.200    partial core radius                                     
   POMASS =   91.224; ZVAL   =    4.000    mass and valenz                      
   RCORE  =    3.000    outmost cutoff radius                                   
   RWIGS  =    3.070; RWIGS  =    1.625    wigner-seitz radius (au A)           
   ENMAX  =  154.632; ENMIN  =  115.974 eV                                      
   RCLOC  =    2.213    cutoff for local pot                                    
   LCOR   =        T    correct aug charges                                     
   LPAW   =        T    paw PP                                                  
   EAUG   =  243.217                                                            
   DEXC   =    -.082                                                            
   RMAX   =    3.708    core radius for proj-oper                               
   RAUG   =    1.300    factor for augmentation sphere                          
   RDEP   =    3.146    radius for radial grids                                 
   QCUT   =   -3.371; QGAM   =    6.742    optimization parameters              
                                                                                
   Description                                                                  
     l     E      TYP  RCUT    TYP  RCUT                                        
     2   .000     23  3.000                                                     
     2   .000     23  3.000                                                     
     0   .000     23  3.000                                                     
     0  2.000     23  3.000                                                     
     1  -.400     23  3.000                                                     
     3   .000      7   .000                                                     
  local pseudopotential read in
  partial core-charges read in
  atomic valenz-charges read in
  non local Contribution for L=           2  read in
    real space projection operators read in
  non local Contribution for L=           2  read in
    real space projection operators read in
  non local Contribution for L=           0  read in
    real space projection operators read in
  non local Contribution for L=           0  read in
    real space projection operators read in
  non local Contribution for L=           1  read in
    real space projection operators read in
    PAW grid and wavefunctions read in
 
   number of l-projection  operators is LMAX  =           5
   number of lm-projection operators is LMMAX =          15
 
 POTCAR:    PAW_PBE O 08Apr2002                   
   VRHFIN =O: s2p4                                                              
   LEXCH  = PE                                                                  
   EATOM  =   432.3788 eV,   31.7789 Ry                                         
                                                                                
   TITEL  = PAW_PBE O 08Apr2002                                                 
   LULTRA =        F    use ultrasoft PP ?                                      
   IUNSCR =        1    unscreen: 0-lin 1-nonlin 2-no                           
   RPACOR =    1.200    partial core radius                                     
   POMASS =   16.000; ZVAL   =    6.000    mass and valenz                      
   RCORE  =    1.520    outmost cutoff radius                                   
   RWIGS  =    1.550; RWIGS  =    0.820    wigner-seitz radius (au A)           
   ENMAX  =  400.000; ENMIN  =  300.000 eV                                      
   ICORE  =        2    local potential                                         
   LCOR   =        T    correct aug charges                                     
   LPAW   =        T    paw PP                                                  
   EAUG   =  605.392                                                            
   DEXC   =    0.000                                                            
   RMAX   =    1.553    core radius for proj-oper                               
   RAUG   =    1.300    factor for augmentation sphere                          
   RDEP   =    1.550    radius for radial grids                                 
   RDEPT  =    1.329    core radius for aug-charge                              
                                                                                
   Atomic configuration                                                         
    4 entries                                                                   
     n  l   j            E        occ.                                          
     1  0  0.50      -514.6923   2.0000                                         
     2  0  0.50       -23.9615   2.0000                                         
     2  1  0.50        -9.0305   4.0000                                         
     3  2  1.50        -9.5241   0.0000                                         
   Description                                                                  
     l       E           TYP  RCUT    TYP  RCUT                                 
     0    -23.9615318     23  1.200                                             
     0     -9.5240782     23  1.200                                             
     1     -9.0304911     23  1.520                                             
     1      8.1634956     23  1.520                                             
     2     -9.5240782      7  1.500                                             
  local pseudopotential read in
  partial core-charges read in
  partial kinetic energy density read in
  kinetic energy density of atom read in
  atomic valenz-charges read in
  non local Contribution for L=           0  read in
    real space projection operators read in
  non local Contribution for L=           0  read in
    real space projection operators read in
  non local Contribution for L=           1  read in
    real space projection operators read in
  non local Contribution for L=           1  read in
    real space projection operators read in
    PAW grid and wavefunctions read in
 
   number of l-projection  operators is LMAX  =           4
   number of lm-projection operators is LMMAX =           8
 

 ----------------------------------------------------------------------------- 
|                                                                             |
|  ADVICE TO THIS USER RUNNING 'VASP/VAMP'   (HEAR YOUR MASTER'S VOICE ...):  |
|                                                                             |
|      You have a (more or less) 'large supercell' and for larger cells       |
|      it might be more efficient to use real space projection opertators     |
|      So try LREAL= Auto  in the INCAR   file.                               |
|      Mind: At the moment your POTCAR file does not contain real space       |
|       projectors, and has to be modified,  BUT if you                       |
|      want to do an extremely  accurate calculation you might also keep the  |
|      reciprocal projection scheme          (i.e. LREAL=.FALSE.)             |
|                                                                             |
 ----------------------------------------------------------------------------- 

 WARNING: PSMAXN for non-local potential too small
          PSMAXN should be >   12.5490833729506       NTYP=           5
  PAW_PBE Al 04Jan2001                  :
 energy of atom  1       EATOM=  -53.5387
 kinetic energy error for atom=    0.0002 (will be added to EATOM!!)
  PAW_PBE Nb_sv 25May2007               :
 energy of atom  2       EATOM=-1555.1913
 kinetic energy error for atom=    0.0037 (will be added to EATOM!!)
  PAW_PBE Ta 17Jan2003                  :
 energy of atom  3       EATOM= -130.6506
 kinetic energy error for atom=    0.0004 (will be added to EATOM!!)
  PAW_PBE Ti 08Apr2002                  :
 energy of atom  4       EATOM=  -94.7928
 kinetic energy error for atom=    0.0001 (will be added to EATOM!!)
 PAW_PBE Zr 08Apr2002                   :
 energy of atom  5       EATOM=  -77.8472
 kinetic energy error for atom=    0.0001 (will be added to EATOM!!)
  PAW_PBE O 08Apr2002                   :
 energy of atom  6       EATOM= -432.3788
 kinetic energy error for atom=    0.0168 (will be added to EATOM!!)
 
 
 POSCAR: Al Nb Ta Ti Zr                          
  positions in direct lattice
  velocities in cartesian coordinates
 exchange correlation table for  LEXCH =        8
   RHO(1)=    0.500       N(1)  =     2000
   RHO(2)=  100.500       N(2)  =     4000
 


--------------------------------------------------------------------------------------------------------


 ion  position               nearest neighbor table
   1  0.623  0.867  0.376-  34 2.83  25 2.88  24 2.88   9 2.88  13 2.90   4 2.91  61 2.93  15 3.16
                            41 3.35  17 3.40
   2  0.619  0.397  0.547-  31 2.79  33 2.82  23 2.84  10 2.93   7 2.93  14 2.94  26 2.98  62 3.01
                             3 3.08  17 3.16  16 3.18  42 3.42
   3  0.590  0.628  0.623-  79 1.83  75 1.84  78 1.90  32 2.64  33 2.73  26 2.83   8 2.83  45 2.93
                            23 2.97   2 3.08  14 3.09
   4  0.618  0.084  0.450-  31 2.80  24 2.86  34 2.87  13 2.88   1 2.91  25 2.92   7 2.92  62 2.99
                            10 3.06  28 3.16  46 3.24
   5  0.981  0.640  0.549-  27 2.78  30 2.80  56 2.93  42 2.97  63 2.98  47 3.00  52 3.06  59 3.19
                            57 3.24  54 3.38  58 3.63
   6  0.980  0.121  0.378-  29 2.80  28 2.80  53 2.91  41 2.96  51 3.05  55 3.05  60 3.08  57 3.37

   7  0.729  0.343  0.458-  28 2.77  29 2.83  31 2.85  17 2.89  11 2.90   4 2.92   2 2.93  62 3.05
                            63 3.07  42 3.16
   8  0.725  0.849  0.633-  78 2.03  71 2.04  77 2.06  79 2.16  27 2.73  32 2.79   3 2.83  30 2.84
                            18 2.91  12 2.93  64 3.20
   9  0.517  0.608  0.367-  35 2.84  15 2.85  17 2.87   1 2.88  11 2.89  61 2.95  43 3.10
  10  0.512  0.132  0.545-  16 2.83  18 2.90  36 2.91   2 2.93  12 2.93  46 3.04  31 3.06   4 3.06
                            62 3.06  44 3.16
  11  0.618  0.343  0.369-  24 2.75  34 2.83  31 2.87   9 2.89   7 2.90  61 2.96  43 3.27
  12  0.622  0.870  0.540-  13 2.74  32 2.79  23 2.80  33 2.86  25 2.89  62 2.92   8 2.93  10 2.93
                            44 3.43
  13  0.742  0.843  0.462-  12 2.74  17 2.87   4 2.88   1 2.90  28 2.94  63 2.98  41 3.05  23 3.09
                            30 3.10  57 3.27
  14  0.742  0.393  0.634-  74 2.00  76 2.01  79 2.23  42 2.92   2 2.94  27 3.00  18 3.03  64 3.08
                             3 3.09  58 3.12
  15  0.394  0.847  0.369-  22 2.68  19 2.76  25 2.83  34 2.84   9 2.85  39 2.98   1 3.16  46 3.43

  16  0.389  0.370  0.547-  21 2.64  20 2.81  10 2.83  26 2.89  40 2.91  33 2.93  37 2.94  31 3.01
                             2 3.18
  17  0.619  0.602  0.458-  33 2.76  25 2.81  31 2.85   9 2.87  13 2.87   7 2.89  61 2.95  35 3.03
                            23 3.03   2 3.16   1 3.40  63 3.44
  18  0.631  0.120  0.631-  72 2.03  71 2.05  74 2.08  32 2.67  10 2.90  62 2.90   8 2.91  26 2.97
                            14 3.03  64 3.18  36 3.18
  19  0.279  0.834  0.451-  15 2.76  35 2.94  46 2.96  39 2.97  44 2.97  25 2.99  60 3.07  51 3.08
                            47 3.12  56 3.29  21 3.31
  20  0.272  0.347  0.630-  69 2.00  70 2.04  67 2.18  16 2.81  36 2.95  48 3.01  52 3.03  40 3.07
                            59 3.09  26 3.13  45 3.20
  21  0.273  0.586  0.534-  80 2.06  16 2.64  37 2.88  35 2.89  47 2.90  52 2.93  44 3.05  45 3.07
                            33 3.12  56 3.17  59 3.23  19 3.31
  22  0.283  0.077  0.361-  15 2.68  46 2.97  43 2.97  34 2.99  51 3.02  55 3.10  60 3.10
  23  0.742  0.636  0.548-  79 2.16  12 2.80  30 2.83   2 2.84  27 2.91   3 2.97  42 3.01  17 3.03
                            63 3.06  13 3.09
  24  0.740  0.115  0.366-  29 2.73  11 2.75  28 2.85   4 2.86   1 2.88  41 3.00
  25  0.496  0.836  0.458-  35 2.78  17 2.81  15 2.83   1 2.88  12 2.89  33 2.92   4 2.92  19 2.99
                            46 2.99  44 3.00
  26  0.498  0.365  0.636-  70 1.90  75 1.92  74 1.96   3 2.83  36 2.87  16 2.89  18 2.97   2 2.98
                            20 3.13  45 3.16
  27  0.868  0.649  0.632-  76 2.02  79 2.02  68 2.04  77 2.12  58 2.73   8 2.73   5 2.78  23 2.91
                            54 2.98  14 3.00  30 3.01  42 3.48
  28  0.847  0.110  0.455-   7 2.77   6 2.80  62 2.84  24 2.85  57 2.90  13 2.94  53 2.98  50 3.05
                            29 3.15   4 3.16  41 3.36
  29  0.852  0.349  0.376-  24 2.73   6 2.80   7 2.83  53 2.94  61 2.98  49 3.07  28 3.15  63 3.25

  30  0.862  0.875  0.556-  77 2.18   5 2.80  23 2.83   8 2.84  50 2.88  57 2.99  27 3.01  62 3.04
                            13 3.10  64 3.21  54 3.28
  31  0.522  0.339  0.461-   2 2.79   4 2.80  17 2.85   7 2.85  35 2.86  11 2.87  46 2.95  16 3.01
                            10 3.06  43 3.11
  32  0.525  0.887  0.629-  78 1.88  72 2.01  65 2.02   3 2.64  18 2.67  36 2.67   8 2.79  12 2.79
                            45 3.07  44 3.08
  33  0.497  0.631  0.536-   3 2.73  35 2.74  17 2.76   2 2.82  44 2.85  12 2.86  25 2.92  16 2.93
                            45 3.08  21 3.12
  34  0.499  0.102  0.365-  11 2.83   1 2.83  15 2.84   4 2.87  43 2.91  46 2.98  22 2.99
  35  0.400  0.580  0.451-  33 2.74  25 2.78   9 2.84  31 2.86  37 2.88  21 2.89  39 2.93  19 2.94
                            17 3.03  43 3.08
  36  0.400  0.100  0.634-  72 1.94  70 2.01  67 2.05  65 2.13  32 2.67  26 2.87  10 2.91  38 2.95
                            20 2.95  40 3.13  18 3.18  44 3.29
  37  0.255  0.366  0.464-  21 2.88  35 2.88  16 2.94  47 3.02  60 3.04  43 3.05  55 3.08  46 3.08
                            52 3.13  40 3.19  39 3.39
  38  0.231  0.910  0.634-  73 1.89  67 2.04  65 2.05  80 2.15  56 2.86  54 2.87  36 2.95  48 2.98
                            59 3.11  44 3.14  40 3.24  45 3.24
  39  0.252  0.614  0.376-  35 2.93  19 2.97  15 2.98  47 3.07  43 3.07  51 3.07  55 3.08  37 3.39
                            49 3.53
  40  0.255  0.135  0.547-  67 2.43  16 2.91  44 3.03  20 3.07  52 3.08  60 3.08  46 3.11  36 3.13
                            56 3.19  37 3.19  48 3.22  38 3.24  50 3.64
  41  0.865  0.859  0.370-   6 2.96  24 3.00  61 3.05  13 3.05  57 3.06  49 3.12   1 3.35  28 3.36
                            51 3.49  63 3.53
  42  0.867  0.376  0.549-  81 2.25  14 2.92   5 2.97  62 3.00  23 3.01  50 3.15   7 3.16  58 3.19
                            63 3.24  53 3.25   2 3.42  52 3.44  64 3.44  27 3.48
  43  0.381  0.352  0.373-  34 2.91  22 2.97  37 3.05  39 3.07  35 3.08   9 3.10  31 3.11  55 3.26
                            11 3.27  46 3.29
  44  0.374  0.868  0.547-  65 2.36  80 2.38  33 2.85  19 2.97  25 3.00  40 3.03  21 3.05  32 3.08
                            45 3.13  38 3.14  10 3.16  56 3.29  36 3.29  46 3.38  12 3.43
  45  0.378  0.645  0.630-  69 2.09  75 2.11  65 2.24  80 2.26   3 2.93  21 3.07  32 3.07  33 3.08
                            44 3.13  26 3.16  20 3.20  38 3.24  59 3.26
  46  0.384  0.104  0.456-  31 2.95  19 2.96  22 2.97  34 2.98  25 2.99  10 3.04  37 3.08  40 3.11
                             4 3.24  60 3.27  43 3.29  44 3.38  15 3.43
  47  0.117  0.611  0.465-  21 2.90   5 3.00  37 3.02  39 3.07  19 3.12  53 3.14  49 3.15  57 3.17
                            56 3.21  52 3.26  63 3.42  51 3.52  55 3.80
  48  0.098  0.156  0.633-  66 2.12  67 2.14  81 2.24  38 2.98  20 3.01  54 3.02  50 3.07  58 3.07
                            52 3.14  40 3.22  64 3.28  56 3.85
  49  0.996  0.593  0.368-  63 3.05  29 3.07  41 3.12  47 3.15  51 3.16  55 3.23  53 3.44  39 3.53
                            61 3.65  57 3.82
  50  0.993  0.103  0.538-  81 2.17  30 2.88  57 2.96  28 3.05  48 3.07  56 3.13  42 3.15  53 3.19
                            60 3.21  52 3.23  64 3.28  62 3.57  40 3.64  54 3.75
  51  0.119  0.872  0.375-  60 3.00  22 3.02   6 3.05  39 3.07  19 3.08  57 3.16  49 3.16  41 3.49
                            47 3.52
  52  0.116  0.386  0.553-  81 2.27  21 2.93  20 3.03   5 3.06  59 3.07  40 3.08  37 3.13  48 3.14
                            50 3.23  53 3.25  47 3.26  42 3.44  58 3.45
  53  1.000  0.331  0.453-   6 2.91  29 2.94  28 2.98  60 3.06  63 3.08  55 3.09  47 3.14  50 3.19
                            52 3.25  42 3.25  49 3.44
  54  0.026  0.859  0.642-  77 2.11  73 2.16  68 2.27  59 2.87  38 2.87  27 2.98  48 3.02  56 3.06
                            30 3.28   5 3.38  64 3.38  50 3.75
  55  0.145  0.332  0.368-   6 3.05  37 3.08  39 3.08  53 3.09  22 3.10  49 3.23  60 3.24  43 3.26
                            47 3.80
  56  0.135  0.850  0.545-  80 2.27  38 2.86   5 2.93  54 3.06  57 3.10  50 3.13  21 3.17  40 3.19
                            47 3.21  19 3.29  44 3.29  59 3.29  60 3.50  48 3.85
  57  0.979  0.876  0.465-  28 2.90  50 2.96  30 2.99  41 3.06  56 3.10  63 3.11  60 3.13  51 3.16
                            47 3.17   5 3.24  13 3.27   6 3.37  49 3.82
  58  0.965  0.408  0.652-  66 2.09  76 2.09  81 2.20  68 2.22  27 2.73  48 3.07  14 3.12  64 3.14
                            59 3.18  42 3.19  52 3.45   5 3.63
  59  0.143  0.612  0.631-  69 2.14  68 2.15  73 2.20  80 2.27  54 2.87  52 3.07  20 3.09  38 3.11
                            58 3.18   5 3.19  21 3.23  45 3.26  56 3.29
  60  0.147  0.092  0.451-  51 3.00  37 3.04  53 3.06  19 3.07   6 3.08  40 3.08  22 3.10  57 3.13
                            50 3.21  55 3.24  46 3.27  56 3.50
  61  0.731  0.606  0.367-   1 2.93  17 2.95   9 2.95  11 2.96  29 2.98  41 3.05  63 3.17  49 3.65

  62  0.734  0.129  0.540-  28 2.84  18 2.90  12 2.92   4 2.99  42 3.00   2 3.01  30 3.04   7 3.05
                            10 3.06  64 3.19  50 3.57
  63  0.869  0.592  0.458-  13 2.98   5 2.98  49 3.05  23 3.06   7 3.07  53 3.08  57 3.11  61 3.17
                            42 3.24  29 3.25  47 3.42  17 3.44  41 3.53
  64  0.861  0.120  0.636-  71 2.11  66 2.19  77 2.38  81 2.65  14 3.08  58 3.14  18 3.18  62 3.19
                             8 3.20  30 3.21  50 3.28  48 3.28  54 3.38  42 3.44
  65  0.379  0.880  0.632-  32 2.02  38 2.05  36 2.13  45 2.24  44 2.36
  66  0.980  0.205  0.680-  58 2.09  48 2.12  64 2.19
  67  0.252  0.122  0.635-  38 2.04  36 2.05  48 2.14  20 2.18  40 2.43
  68  0.001  0.633  0.663-  27 2.04  59 2.15  58 2.22  54 2.27
  69  0.270  0.530  0.665-  20 2.00  45 2.09  59 2.14
  70  0.390  0.284  0.668-  26 1.90  36 2.01  20 2.04
  71  0.740  0.030  0.671-   8 2.04  18 2.05  64 2.11
  72  0.515  0.056  0.671-  36 1.94  32 2.01  18 2.03
  73  0.159  0.797  0.677-  38 1.89  54 2.16  59 2.20
  74  0.623  0.314  0.665-  26 1.96  14 2.00  18 2.08
  75  0.498  0.549  0.663-   3 1.84  26 1.92  45 2.11
  76  0.835  0.493  0.678-  14 2.01  27 2.02  58 2.09
  77  0.874  0.871  0.635-   8 2.06  54 2.11  27 2.12  30 2.18  64 2.38
  78  0.607  0.777  0.668-  32 1.88   3 1.90   8 2.03
  79  0.723  0.623  0.625-   3 1.83  27 2.02  23 2.16   8 2.16  14 2.23
  80  0.253  0.735  0.587-  21 2.06  38 2.15  45 2.26  59 2.27  56 2.27  44 2.38
  81  0.990  0.274  0.589-  50 2.17  58 2.20  48 2.24  42 2.25  52 2.27  64 2.65
 
  LATTYP: Found a simple orthorhombic cell.
 ALAT       =     9.5644817352
 B/A-ratio  =     1.4398428730
 C/A-ratio  =     2.8922184390
  
  Lattice vectors:
  
 A1 = (   0.0000000000,  -9.5644817352,   0.0000000000)
 A2 = ( -13.7713508606,   0.0000000000,   0.0000000000)
 A3 = (   0.0000000000,   0.0000000000, -27.6625704340)


Analysis of symmetry for initial positions (statically):
=====================================================================
 Subroutine PRICEL returns:
 Original cell was already a primitive cell.
 

 Routine SETGRP: Setting up the symmetry group for a 
 simple orthorhombic supercell.


 Subroutine GETGRP returns: Found  1 space group operations
 (whereof  1 operations were pure point group operations)
 out of a pool of  8 trial point group operations.


The static configuration has the point symmetry C_1 .


Analysis of symmetry for dynamics (positions and initial velocities):
=====================================================================
 Subroutine PRICEL returns:
 Original cell was already a primitive cell.
 

 Routine SETGRP: Setting up the symmetry group for a 
 simple orthorhombic supercell.


 Subroutine GETGRP returns: Found  1 space group operations
 (whereof  1 operations were pure point group operations)
 out of a pool of  8 trial point group operations.


The dynamic configuration has the point symmetry C_1 .


Analysis of constrained symmetry for selective dynamics:
=====================================================================
 Subroutine PRICEL returns:
 Original cell was already a primitive cell.
 

 Routine SETGRP: Setting up the symmetry group for a 
 simple orthorhombic supercell.


 Subroutine GETGRP returns: Found  1 space group operations
 (whereof  1 operations were pure point group operations)
 out of a pool of  8 trial point group operations.


The constrained configuration has the point symmetry C_1 .


 Subroutine INISYM returns: Found  1 space group operations
 (whereof  1 operations are pure point group operations),
 and found     1 'primitive' translations

 
 
 KPOINTS: k-points                                

Automatic generation of k-mesh.
Space group operators:
 irot       det(A)        alpha          n_x          n_y          n_z        tau_x        tau_y        tau_z
    1     1.000000     0.000000     1.000000     0.000000     0.000000     0.000000     0.000000     0.000000
 
 Subroutine IBZKPT returns following result:
 ===========================================
 
 Found      5 irreducible k-points:
 
 Following reciprocal coordinates:
            Coordinates               Weight
  0.000000  0.000000  0.000000      1.000000
  0.333333  0.000000  0.000000      2.000000
  0.000000  0.333333  0.000000      2.000000
  0.333333  0.333333  0.000000      2.000000
 -0.333333  0.333333  0.000000      2.000000
 
 Following cartesian coordinates:
            Coordinates               Weight
  0.000000  0.000000  0.000000      1.000000
  0.024205  0.000000  0.000000      2.000000
  0.000000  0.034851  0.000000      2.000000
  0.024205  0.034851  0.000000      2.000000
 -0.024205  0.034851  0.000000      2.000000
 


--------------------------------------------------------------------------------------------------------




 Dimension of arrays:
   k-points           NKPTS =      5   k-points in BZ     NKDIM =      5   number of bands    NBANDS=    268
   number of dos      NEDOS =    301   number of ions     NIONS =     81
   non local maximal  LDIM  =      6   non local SUM 2l+1 LMDIM =     18
   total plane-waves  NPLWV = 846720
   max r-space proj   IRMAX =      1   max aug-charges    IRDMAX=  25433
   dimension x,y,z NGX =    84 NGY =   60 NGZ =  168
   dimension x,y,z NGXF=   168 NGYF=  120 NGZF=  336
   support grid    NGXF=   168 NGYF=  120 NGZF=  336
   ions per type =               6  10   4  18  26  17
 NGX,Y,Z   is equivalent  to a cutoff of  10.14, 10.43, 10.10 a.u.
 NGXF,Y,Z  is equivalent  to a cutoff of  20.28, 20.86, 20.19 a.u.


 I would recommend the setting:
   dimension x,y,z NGX =    83 NGY =   57 NGZ =  166
 SYSTEM =  (110) surface                           
 POSCAR =  Al Nb Ta Ti Zr                          

 Startparameter for this run:
   NWRITE =      2    write-flag & timer
   PREC   = normal    normal or accurate (medium, high low for compatibility)
   ISTART =      0    job   : 0-new  1-cont  2-samecut
   ICHARG =      2    charge: 1-file 2-atom 10-const
   ISPIN  =      1    spin polarized calculation?
   LNONCOLLINEAR =      F non collinear calculations
   LSORBIT =      F    spin-orbit coupling
   INIWAV =      1    electr: 0-lowe 1-rand  2-diag
   LASPH  =      F    aspherical Exc in radial PAW
   METAGGA=      F    non-selfconsistent MetaGGA calc.

 Electronic Relaxation 1
   ENCUT  =  600.0 eV  44.10 Ry    6.64 a.u.  27.50 19.10 55.25*2*pi/ulx,y,z
   ENINI  =  600.0     initial cutoff
   ENAUG  =  605.4 eV  augmentation charge cutoff
   NELM   =     60;   NELMIN=  2; NELMDL= -5     # of ELM steps 
   EDIFF  = 0.1E-03   stopping-criterion for ELM
   LREAL  =      F    real-space projection
   NLSPLINE    = F    spline interpolate recip. space projectors
   LCOMPAT=      F    compatible to vasp.4.4
   GGA_COMPAT  = T    GGA compatible to vasp.4.4-vasp.4.6
   LMAXPAW     = -100 max onsite density
   LMAXMIX     =    2 max onsite mixed and CHGCAR
   VOSKOWN=      0    Vosko Wilk Nusair interpolation
   ROPT   =    0.00000   0.00000   0.00000   0.00000
   ROPT   =    0.00000   0.00000
 Ionic relaxation
   EDIFFG = 0.1E-02   stopping-criterion for IOM
   NSW    =      0    number of steps for IOM
   NBLOCK =      1;   KBLOCK =      1    inner block; outer block 
   IBRION =     -1    ionic relax: 0-MD 1-quasi-New 2-CG
   NFREE  =      0    steps in history (QN), initial steepest desc. (CG)
   ISIF   =      2    stress and relaxation
   IWAVPR =     10    prediction:  0-non 1-charg 2-wave 3-comb
   ISYM   =      2    0-nonsym 1-usesym 2-fastsym
   LCORR  =      T    Harris-Foulkes like correction to forces

   POTIM  = 0.1000    time-step for ionic-motion
   TEIN   =    0.0    initial temperature
   TEBEG  =    0.0;   TEEND  =   0.0 temperature during run
   SMASS  =  -3.00    Nose mass-parameter (am)
   estimated Nose-frequenzy (Omega)   =  0.10E-29 period in steps =****** mass=  -0.433E-26a.u.
   SCALEE = 1.0000    scale energy and forces
   NPACO  =    256;   APACO  = 16.0  distance and # of slots for P.C.
   PSTRESS=    0.0 pullay stress

  Mass of Ions in am
   POMASS =  26.98 92.91180.95 47.88 91.22 16.00
  Ionic Valenz
   ZVAL   =   3.00 13.00  5.00  4.00  4.00  6.00
  Atomic Wigner-Seitz radii
   RWIGS  =  -1.00 -1.00 -1.00 -1.00 -1.00 -1.00
  virtual crystal weights 
   VCA    =   1.00  1.00  1.00  1.00  1.00  1.00
   NELECT =     446.0000    total number of electrons
   NUPDOWN=      -1.0000    fix difference up-down

 DOS related values:
   EMIN   =  10.00;   EMAX   =-10.00  energy-range for DOS
   EFERMI =   0.00
   ISMEAR =     2;   SIGMA  =   0.10  broadening in eV -4-tet -1-fermi 0-gaus

 Electronic relaxation 2 (details)
   IALGO  =     68    algorithm
   LDIAG  =      T    sub-space diagonalisation (order eigenvalues)
   LSUBROT=      F    optimize rotation matrix (better conditioning)
   TURBO    =      0    0=normal 1=particle mesh
   IRESTART =      0    0=no restart 2=restart with 2 vectors
   NREBOOT  =      0    no. of reboots
   NMIN     =      0    reboot dimension
   EREF     =   0.00    reference energy to select bands
   IMIX   =      4    mixing-type and parameters
     AMIX     =   0.40;   BMIX     =  1.00
     AMIX_MAG =   1.60;   BMIX_MAG =  1.00
     AMIN     =   0.10
     WC   =   100.;   INIMIX=   1;  MIXPRE=   1;  MAXMIX= -45

 Intra band minimization:
   WEIMIN = 0.0000     energy-eigenvalue tresh-hold
   EBREAK =  0.93E-07  absolut break condition
   DEPER  =   0.30     relativ break condition  

   TIME   =   0.40     timestep for ELM

  volume/ion in A,a.u.               =      44.98       303.56
  Fermi-wavevector in a.u.,A,eV,Ry     =   0.812849  1.536061  8.989678  0.660723
  Thomas-Fermi vector in A             =   1.922466
 
 Write flags
   LWAVE  =      F    write WAVECAR
   LCHARG =      T    write CHGCAR
   LVTOT  =      F    write LOCPOT, total local potential
   LVHAR  =      F    write LOCPOT, Hartree potential only
   LELF   =      F    write electronic localiz. function (ELF)
   LORBIT =      0    0 simple, 1 ext, 2 COOP (PROOUT)


 Dipole corrections
   LMONO  =      F    monopole corrections only (constant potential shift)
   LDIPOL =      F    correct potential (dipole corrections)
   IDIPOL =      0    1-x, 2-y, 3-z, 4-all directions 
   EPSILON=  1.0000000 bulk dielectric constant

 Exchange correlation treatment:
   GGA     =    --    GGA type
   LEXCH   =     8    internal setting for exchange type
   VOSKOWN=      0    Vosko Wilk Nusair interpolation
   LHFCALC =     F    Hartree Fock is set to
   LHFONE  =     F    Hartree Fock one center treatment
   AEXX    =    0.0000 exact exchange contribution

 Linear response parameters
   LEPSILON=     F    determine dielectric tensor
   LRPA    =     F    only Hartree local field effects (RPA)
   LNABLA  =     F    use nabla operator in PAW spheres
   LVEL    =     F    velocity operator in full k-point grid
   LINTERFAST=   F  fast interpolation
   KINTER  =     0    interpolate to denser k-point grid
   CSHIFT  =0.1000    complex shift for real part using Kramers Kronig
   OMEGAMAX=  -1.0    maximum frequency
   DEG_THRESHOLD= 0.2000000E-02 threshold for treating states as degnerate
   RTIME   =    0.100 relaxation time in fs

 Orbital magnetization related:
   ORBITALMAG=     F  switch on orbital magnetization
   LCHIMAG   =     F  perturbation theory with respect to B field
   DQ        =  0.001000  dq finite difference perturbation B field



--------------------------------------------------------------------------------------------------------


 Static calculation
 charge density and potential will be updated during run
 non-spin polarized calculation
 RMM-DIIS sequential band-by-band and
  variant of blocked Davidson during initial phase
 perform sub-space diagonalisation
    before iterative eigenvector-optimisation
 modified Broyden-mixing scheme, WC =      100.0
 initial mixing is a Kerker type mixing with AMIX =  0.4000 and BMIX =      1.0000
 Hartree-type preconditioning will be used
 using additional bands           45
 reciprocal scheme for non local part
 use partial core corrections
 calculate Harris-corrections to forces 
   (improved forces if not selfconsistent)
 use gradient corrections 
 use of overlap-Matrix (Vanderbilt PP)
 Methfessel and Paxton  Order N= 2 SIGMA  =   0.10


--------------------------------------------------------------------------------------------------------


  energy-cutoff  :      600.00
  volume of cell :     3643.60
      direct lattice vectors                 reciprocal lattice vectors
    13.771350861  0.000000000  0.000000000     0.072614518  0.000000000  0.000000000
     0.000000000  9.564481735  0.000000000     0.000000000  0.104553496  0.000000000
     0.000000000  0.000000000 27.662570434     0.000000000  0.000000000  0.036149931

  length of vectors
    13.771350861  9.564481735 27.662570434     0.072614518  0.104553496  0.036149931


 
 k-points in units of 2pi/SCALE and weight: k-points                                
   0.00000000  0.00000000  0.00000000       0.111
   0.02420484  0.00000000  0.00000000       0.222
   0.00000000  0.03485117  0.00000000       0.222
   0.02420484  0.03485117  0.00000000       0.222
  -0.02420484  0.03485117  0.00000000       0.222
 
 k-points in reciprocal lattice and weights: k-points                                
   0.00000000  0.00000000  0.00000000       0.111
   0.33333333  0.00000000  0.00000000       0.222
   0.00000000  0.33333333  0.00000000       0.222
   0.33333333  0.33333333  0.00000000       0.222
  -0.33333333  0.33333333  0.00000000       0.222
 
 position of ions in fractional coordinates (direct lattice) 
   0.62276447  0.86746430  0.37590333
   0.61911310  0.39672889  0.54723357
   0.58981379  0.62764105  0.62339712
   0.61839700  0.08363760  0.44965952
   0.98104216  0.63952716  0.54888611
   0.97963780  0.12056648  0.37767599
   0.72857308  0.34338307  0.45816820
   0.72545873  0.84865338  0.63268392
   0.51739597  0.60805875  0.36719826
   0.51165438  0.13240909  0.54513897
   0.61811078  0.34297293  0.36889183
   0.62194011  0.87031568  0.54047108
   0.74231148  0.84345710  0.46199300
   0.74225799  0.39297926  0.63409630
   0.39405298  0.84738672  0.36896032
   0.38894377  0.37022831  0.54694618
   0.61928761  0.60162497  0.45752798
   0.63050624  0.12040045  0.63140369
   0.27944195  0.83362269  0.45088327
   0.27184902  0.34740364  0.62972140
   0.27287357  0.58621944  0.53434341
   0.28324246  0.07725573  0.36149931
   0.74216369  0.63551032  0.54762770
   0.74002355  0.11549973  0.36646499
   0.49591756  0.83582580  0.45790018
   0.49834200  0.36496884  0.63594607
   0.86770760  0.64936562  0.63206531
   0.84724605  0.11017048  0.45460239
   0.85243583  0.34907103  0.37639265
   0.86178099  0.87520869  0.55640592
   0.52175105  0.33942658  0.46105252
   0.52478365  0.88667625  0.62883900
   0.49745844  0.63130576  0.53603934
   0.49943882  0.10200214  0.36464270
   0.40016663  0.58028412  0.45130253
   0.40002521  0.10034706  0.63376591
   0.25505811  0.36595738  0.46399110
   0.23145873  0.91041672  0.63439979
   0.25182599  0.61397660  0.37627308
   0.25496312  0.13466438  0.54726545
   0.86539888  0.85904646  0.37036829
   0.86677230  0.37640622  0.54872910
   0.38059813  0.35186696  0.37331264
   0.37351898  0.86800580  0.54689944
   0.37798609  0.64527227  0.62992753
   0.38408008  0.10357511  0.45579618
   0.11657381  0.61110574  0.46457054
   0.09804034  0.15612764  0.63348151
   0.99629861  0.59295863  0.36811234
   0.99261378  0.10335969  0.53751297
   0.11869311  0.87196302  0.37467704
   0.11642656  0.38641698  0.55325467
   0.99977952  0.33051389  0.45306987
   0.02635037  0.85891387  0.64195686
   0.14482272  0.33176249  0.36788561
   0.13518730  0.84977110  0.54538345
   0.97888047  0.87608504  0.46520830
   0.96544774  0.40821300  0.65242779
   0.14271073  0.61154122  0.63102846
   0.14721048  0.09173214  0.45072276
   0.73135245  0.60578495  0.36679988
   0.73372641  0.12923857  0.53995810
   0.86923259  0.59196168  0.45825814
   0.86112908  0.11966473  0.63602834
   0.37863819  0.87955101  0.63214615
   0.97954932  0.20548172  0.67960426
   0.25187737  0.12160829  0.63492090
   0.00128046  0.63282876  0.66335155
   0.26999034  0.52971887  0.66508537
   0.39012068  0.28444081  0.66845907
   0.73997693  0.03017563  0.67099609
   0.51470203  0.05636468  0.67133479
   0.15923639  0.79715285  0.67724886
   0.62323332  0.31389946  0.66531729
   0.49802380  0.54896390  0.66333038
   0.83520554  0.49262862  0.67828425
   0.87431437  0.87107035  0.63503182
   0.60665600  0.77690706  0.66797945
   0.72261276  0.62343832  0.62509878
   0.25261999  0.73455132  0.58729201
   0.98989778  0.27436090  0.58909200
 
 position of ions in cartesian coordinates  (Angst):
   8.57630799  8.29684649 10.39845223
   8.52602374  3.79450623 15.13788706
   8.12253267  6.00306138 17.24476663
   8.51616202  0.79995025 12.43873821
  13.51027575  6.11674583 15.18360078
  13.49093588  1.15315590 10.44748880
  10.03343557  3.28428114 12.67411000
   9.99054676  8.11692971 17.50166345
   7.12524148  5.81576681 10.15764776
   7.04617205  1.26642429 15.07994521
   8.51222037  3.28035836 10.20449636
   8.56495547  8.32411847 14.95081930
  10.22263181  8.06723005 12.77991378
  10.22189519  3.75864300 17.54073361
   5.42664188  8.10481479 10.20639088
   5.35628114  3.54104194 15.12993718
   8.52842696  5.75423100 12.65640004
   8.68292266  1.15156786 17.46624898
   3.84829318  7.97316903 12.47259035
   3.74372818  3.32273577 17.41971247
   3.75783769  5.60688512 14.78131218
   3.90063135  0.73891098 10.00000000
  10.22059657  6.07832681 15.14878975
  10.19112400  1.10469510 10.13736353
   6.82945470  7.99424061 12.66669595
   6.86284253  3.49073776 17.59190287
  11.94950585  6.21084565 17.48455129
  11.66772263  1.05372358 12.57547056
  11.73919286  3.33868345 10.41198829
  11.86788836  8.37091758 15.39161793
   7.18521672  3.24643930 12.75389771
   7.22697971  8.48059875 17.39530317
   6.85067472  6.03811246 14.82822587
   6.87794726  0.97559764 10.08695433
   5.51083508  5.55011685 12.48418803
   5.50888750  0.95976761 17.53159413
   3.51249472  3.50019267 12.83518635
   3.18749945  8.70766408 17.54912877
   3.46798404  5.87236796 10.40868071
   3.51118659  1.28799496 15.13876892
  11.91771166  8.21633417 10.24533883
  11.93662544  3.60013045 15.17925732
   5.24135036  3.36542512 10.32678719
   5.14386091  8.30202562 15.12864432
   5.20537910  6.17169484 17.42541480
   5.28930157  0.99064225 12.60849381
   1.60537885  5.84490969 12.85121538
   1.35014796  1.49327997 17.52372702
  13.72037774  5.67134198 10.18293350
  13.66963263  0.98858185 14.86899043
   1.63456451  8.33987442 10.36453009
   1.60335095  3.69587815 15.30444619
  13.76831459  3.16119411 12.53307716
   0.36288018  8.21506605 17.75817680
   1.99440444  3.17313630 10.17666150
   1.86171170  8.12762014 15.08670812
  13.48050634  8.37929939 12.86885734
  13.29551952  3.90434579 18.04782967
   1.96531954  5.84907486 17.45586918
   2.02728715  0.87737042 12.46815015
  10.07171117  5.79401911 10.14662739
  10.10440386  1.23609995 14.93662901
  11.97050705  5.66180669 12.67659812
  11.85891073  1.14453110 17.59417865
   5.21435936  8.41244961 17.48678736
  13.48971742  1.96532618 18.79960080
   3.46869164  1.16312023 17.56354424
   0.01763363  6.05267913 18.35000904
   3.71813175  5.06648642 18.39797094
   5.37248873  2.72052897 18.49129616
  10.19048194  0.28861430 18.56147650
   7.08814222  0.53909899 18.57084583
   2.19290016  7.62435387 18.73444426
   8.58276473  3.00228564 18.40438637
   6.85846055  5.25055518 18.34942345
  11.50190859  4.71173742 18.76308583
  12.04048998  8.33133646 17.56661250
   8.35447263  7.43071342 18.47802865
   9.95135387  5.96286439 17.29183891
   3.47891856  7.02560266 16.24600664
  13.63222969  2.62411982 16.29579891
 


--------------------------------------------------------------------------------------------------------


 k-point  1 :   0.0000 0.0000 0.0000  plane waves:  121663
 k-point  2 :   0.3333 0.0000 0.0000  plane waves:  121577
 k-point  3 :   0.0000 0.3333 0.0000  plane waves:  121622
 k-point  4 :   0.3333 0.3333 0.0000  plane waves:  121647
 k-point  5 :  -0.3333 0.3333 0.0000  plane waves:  121647

 maximum and minimum number of plane-waves per node :      5107     5041

 maximum number of plane-waves:    121663
 maximum index in each direction: 
   IXMAX=   27   IYMAX=   19   IZMAX=   55
   IXMIN=  -27   IYMIN=  -19   IZMIN=  -55

 WARNING: aliasing errors must be expected set NGX to 110 to avoid them
 WARNING: aliasing errors must be expected set NGY to  78 to avoid them
 WARNING: aliasing errors must be expected set NGZ to 222 to avoid them
 aliasing errors are usually negligible using standard VASP settings
 and one can safely disregard these warnings

 parallel 3D FFT for wavefunctions:
    minimum data exchange during FFTs selected (reduces bandwidth)
 parallel 3D FFT for charge:
    minimum data exchange during FFTs selected (reduces bandwidth)


 total amount of memory used by VASP on root node   135944. kBytes
========================================================================

   base      :      30000. kBytes
   nonl-proj :      28495. kBytes
   fftplans  :       6516. kBytes
   grid      :      15878. kBytes
   one-center:         62. kBytes
   wavefun   :      54993. kBytes
 
     INWAV:  cpu time    0.0000: real time    0.0000
 Broyden mixing: mesh for mixing (old mesh)
   NGX = 55   NGY = 39   NGZ =111
  (NGX  =168   NGY  =120   NGZ  =336)
  gives a total of 238095 points

 initial charge density was supplied:
 charge density of overlapping atoms calculated
 number of electron     446.0000000 magnetization 
 keeping initial charge density in first step


--------------------------------------------------------------------------------------------------------


 Maximum index for augmentation-charges         1033 (set IRDMAX)


--------------------------------------------------------------------------------------------------------


 First call to EWALD:  gamma=   0.115
 Maximum number of real-space cells 3x 4x 2
 Maximum number of reciprocal cells 3x 2x 5

 FEWALD executed in parallel
    FEWALD:  cpu time    0.0028: real time    0.0028


----------------------------------------- Iteration    1(   1)  ---------------------------------------


    POTLOK:  cpu time    0.1136: real time    0.1186
    SETDIJ:  cpu time    0.0141: real time    0.0177
     EDDAV:  cpu time   20.5706: real time   20.6054
       DOS:  cpu time    0.0017: real time    0.0017
    --------------------------------------------
      LOOP:  cpu time   20.7017: real time   20.7684

 eigenvalue-minimisations  :  2800
 total energy-change (2. order) : 0.5682861E+04  (-0.1696330E+05)
 number of electron     446.0000000 magnetization 
 augmentation part      446.0000000 magnetization 

 Free energy of the ion-electron system (eV)
  ---------------------------------------------------
  alpha Z        PSCENC =       706.24766912
  Ewald energy   TEWEN  =    105887.13013710
  -Hartree energ DENC   =   -130585.31363668
  -exchange      EXHF   =         0.00000000
  -V(xc)+E(xc)   XCENC  =     -2613.58624659
  PAW double counting   =     25330.62223030   -21269.96585237
  entropy T*S    EENTRO =        -0.00425285
  eigenvalues    EBANDS =       751.57459630
  atomic energy  EATOM  =     27476.15622780
  Solvation  Ediel_sol  =         0.00000000
  ---------------------------------------------------
  free energy    TOTEN  =      5682.86087213 eV

  energy without entropy =     5682.86512499  energy(sigma->0) =     5682.86193535


--------------------------------------------------------------------------------------------------------




----------------------------------------- Iteration    1(   2)  ---------------------------------------


     EDDAV:  cpu time   20.6747: real time   20.6749
       DOS:  cpu time    0.0017: real time    0.0017
    --------------------------------------------
      LOOP:  cpu time   20.6780: real time   20.6847

 eigenvalue-minimisations  :  2820
 total energy-change (2. order) :-0.4860729E+04  (-0.4713612E+04)
 number of electron     446.0000000 magnetization 
 augmentation part      446.0000000 magnetization 

 Free energy of the ion-electron system (eV)
  ---------------------------------------------------
  alpha Z        PSCENC =       706.24766912
  Ewald energy   TEWEN  =    105887.13013710
  -Hartree energ DENC   =   -130585.31363668
  -exchange      EXHF   =         0.00000000
  -V(xc)+E(xc)   XCENC  =     -2613.58624659
  PAW double counting   =     25330.62223030   -21269.96585237
  entropy T*S    EENTRO =        -0.00243309
  eigenvalues    EBANDS =     -4109.15591623
  atomic energy  EATOM  =     27476.15622780
  Solvation  Ediel_sol  =         0.00000000
  ---------------------------------------------------
  free energy    TOTEN  =       822.13217937 eV

  energy without entropy =      822.13461246  energy(sigma->0) =      822.13278764


--------------------------------------------------------------------------------------------------------




----------------------------------------- Iteration    1(   3)  ---------------------------------------


     EDDAV:  cpu time   32.2544: real time   32.2551
       DOS:  cpu time    0.0015: real time    0.0015
    --------------------------------------------
      LOOP:  cpu time   32.2570: real time   32.2637

 eigenvalue-minimisations  :  4856
 total energy-change (2. order) :-0.1373669E+04  (-0.1330959E+04)
 number of electron     446.0000000 magnetization 
 augmentation part      446.0000000 magnetization 

 Free energy of the ion-electron system (eV)
  ---------------------------------------------------
  alpha Z        PSCENC =       706.24766912
  Ewald energy   TEWEN  =    105887.13013710
  -Hartree energ DENC   =   -130585.31363668
  -exchange      EXHF   =         0.00000000
  -V(xc)+E(xc)   XCENC  =     -2613.58624659
  PAW double counting   =     25330.62223030   -21269.96585237
  entropy T*S    EENTRO =         0.00842962
  eigenvalues    EBANDS =     -5482.83534503
  atomic energy  EATOM  =     27476.15622780
  Solvation  Ediel_sol  =         0.00000000
  ---------------------------------------------------
  free energy    TOTEN  =      -551.53638673 eV

  energy without entropy =     -551.54481634  energy(sigma->0) =     -551.53849413


--------------------------------------------------------------------------------------------------------




----------------------------------------- Iteration    1(   4)  ---------------------------------------


     EDDAV:  cpu time   27.9245: real time   27.9284
       DOS:  cpu time    0.0016: real time    0.0016
    --------------------------------------------
      LOOP:  cpu time   27.9272: real time   27.9378

 eigenvalue-minimisations  :  4096
 total energy-change (2. order) :-0.2080741E+03  (-0.2020169E+03)
 number of electron     446.0000000 magnetization 
 augmentation part      446.0000000 magnetization 

 Free energy of the ion-electron system (eV)
  ---------------------------------------------------
  alpha Z        PSCENC =       706.24766912
  Ewald energy   TEWEN  =    105887.13013710
  -Hartree energ DENC   =   -130585.31363668
  -exchange      EXHF   =         0.00000000
  -V(xc)+E(xc)   XCENC  =     -2613.58624659
  PAW double counting   =     25330.62223030   -21269.96585237
  entropy T*S    EENTRO =         0.00037220
  eigenvalues    EBANDS =     -5690.90137648
  atomic energy  EATOM  =     27476.15622780
  Solvation  Ediel_sol  =         0.00000000
  ---------------------------------------------------
  free energy    TOTEN  =      -759.61047559 eV

  energy without entropy =     -759.61084779  energy(sigma->0) =     -759.61056864


--------------------------------------------------------------------------------------------------------




----------------------------------------- Iteration    1(   5)  ---------------------------------------


     EDDAV:  cpu time   32.9032: real time   32.9036
       DOS:  cpu time    0.0016: real time    0.0016
    CHARGE:  cpu time    0.3390: real time    0.3395
    MIXING:  cpu time    0.0074: real time    0.0078
    --------------------------------------------
      LOOP:  cpu time   33.2532: real time   33.2605

 eigenvalue-minimisations  :  4968
 total energy-change (2. order) :-0.1783647E+02  (-0.1738284E+02)
 number of electron     446.0000135 magnetization 
 augmentation part       53.4804662 magnetization 

 Broyden mixing:
  rms(total) = 0.80904E+01    rms(broyden)= 0.80902E+01
  rms(prec ) = 0.85345E+01
  weight for this iteration     100.00

 Free energy of the ion-electron system (eV)
  ---------------------------------------------------
  alpha Z        PSCENC =       706.24766912
  Ewald energy   TEWEN  =    105887.13013710
  -Hartree energ DENC   =   -130585.31363668
  -exchange      EXHF   =         0.00000000
  -V(xc)+E(xc)   XCENC  =     -2613.58624659
  PAW double counting   =     25330.62223030   -21269.96585237
  entropy T*S    EENTRO =         0.00011922
  eigenvalues    EBANDS =     -5708.73758985
  atomic energy  EATOM  =     27476.15622780
  Solvation  Ediel_sol  =         0.00000000
  ---------------------------------------------------
  free energy    TOTEN  =      -777.44694194 eV

  energy without entropy =     -777.44706116  energy(sigma->0) =     -777.44697175


--------------------------------------------------------------------------------------------------------




----------------------------------------- Iteration    1(   6)  ---------------------------------------


    POTLOK:  cpu time    0.1003: real time    0.1003
    SETDIJ:  cpu time    0.0092: real time    0.0092
    EDDIAG:  cpu time    1.3092: real time    1.3103
  RMM-DIIS:  cpu time   23.6499: real time   23.6505
    ORTHCH:  cpu time    0.3367: real time    0.3367
       DOS:  cpu time    0.0017: real time    0.0017
    CHARGE:  cpu time    0.3433: real time    0.3434
    MIXING:  cpu time    0.0052: real time    0.0076
    --------------------------------------------
      LOOP:  cpu time   25.7572: real time   25.7682

 eigenvalue-minimisations  :  4446
 total energy-change (2. order) :-0.3628651E+02  (-0.1594340E+03)
 number of electron     446.0000089 magnetization 
 augmentation part       67.2185287 magnetization 

 Broyden mixing:
  rms(total) = 0.49399E+01    rms(broyden)= 0.49396E+01
  rms(prec ) = 0.65587E+01
  weight for this iteration     100.00

 eigenvalues of (default mixing * dielectric matrix)
  average eigenvalue GAMMA=   0.7920
  0.7920

 Free energy of the ion-electron system (eV)
  ---------------------------------------------------
  alpha Z        PSCENC =       706.24766912
  Ewald energy   TEWEN  =    105887.13013710
  -Hartree energ DENC   =   -131480.08690564
  -exchange      EXHF   =         0.00000000
  -V(xc)+E(xc)   XCENC  =     -2578.91423849
  PAW double counting   =     30038.73948842   -25988.36996858
  entropy T*S    EENTRO =        -0.00630868
  eigenvalues    EBANDS =     -4874.62954848
  atomic energy  EATOM  =     27476.15622780
  Solvation  Ediel_sol  =         0.00000000
  ---------------------------------------------------
  free energy    TOTEN  =      -813.73344743 eV

  energy without entropy =     -813.72713875  energy(sigma->0) =     -813.73187026


--------------------------------------------------------------------------------------------------------




----------------------------------------- Iteration    1(   7)  ---------------------------------------


    POTLOK:  cpu time    0.0964: real time    0.0964
    SETDIJ:  cpu time    0.0090: real time    0.0090
    EDDIAG:  cpu time    1.2882: real time    1.2883
  RMM-DIIS:  cpu time   21.6195: real time   21.6196
    ORTHCH:  cpu time    0.3359: real time    0.3359
       DOS:  cpu time    0.0016: real time    0.0016
    CHARGE:  cpu time    0.3437: real time    0.3437
    MIXING:  cpu time    0.0037: real time    0.0042
    --------------------------------------------
      LOOP:  cpu time   23.6995: real time   23.7062

 eigenvalue-minimisations  :  4037
 total energy-change (2. order) : 0.8578123E+01  (-0.4035636E+02)
 number of electron     446.0000108 magnetization 
 augmentation part       64.9628183 magnetization 

 Broyden mixing:
  rms(total) = 0.44238E+01    rms(broyden)= 0.44238E+01
  rms(prec ) = 0.77001E+01
  weight for this iteration     100.00

 eigenvalues of (default mixing * dielectric matrix)
  average eigenvalue GAMMA=   0.6920
  1.0298  0.3542

 Free energy of the ion-electron system (eV)
  ---------------------------------------------------
  alpha Z        PSCENC =       706.24766912
  Ewald energy   TEWEN  =    105887.13013710
  -Hartree energ DENC   =   -130803.07707109
  -exchange      EXHF   =         0.00000000
  -V(xc)+E(xc)   XCENC  =     -2583.53708665
  PAW double counting   =     30864.29909954   -26825.42623758
  entropy T*S    EENTRO =        -0.01404924
  eigenvalues    EBANDS =     -5526.93401369
  atomic energy  EATOM  =     27476.15622780
  Solvation  Ediel_sol  =         0.00000000
  ---------------------------------------------------
  free energy    TOTEN  =      -805.15532467 eV

  energy without entropy =     -805.14127543  energy(sigma->0) =     -805.15181236


--------------------------------------------------------------------------------------------------------




----------------------------------------- Iteration    1(   8)  ---------------------------------------


    POTLOK:  cpu time    0.0963: real time    0.0963
    SETDIJ:  cpu time    0.0090: real time    0.0090
    EDDIAG:  cpu time    1.2997: real time    1.2997
  RMM-DIIS:  cpu time   23.4257: real time   23.4258
    ORTHCH:  cpu time    0.3371: real time    0.3372
       DOS:  cpu time    0.0017: real time    0.0017
    CHARGE:  cpu time    0.3320: real time    0.3320
    MIXING:  cpu time    0.0038: real time    0.0038
    --------------------------------------------
      LOOP:  cpu time   25.5068: real time   25.5139

 eigenvalue-minimisations  :  4379
 total energy-change (2. order) : 0.8205261E+02  (-0.2232718E+02)
 number of electron     446.0000102 magnetization 
 augmentation part       54.8126144 magnetization 

 Broyden mixing:
  rms(total) = 0.34791E+01    rms(broyden)= 0.34790E+01
  rms(prec ) = 0.49207E+01
  weight for this iteration     100.00

 eigenvalues of (default mixing * dielectric matrix)
  average eigenvalue GAMMA=   0.6602
  1.3146  0.4351  0.2308

 Free energy of the ion-electron system (eV)
  ---------------------------------------------------
  alpha Z        PSCENC =       706.24766912
  Ewald energy   TEWEN  =    105887.13013710
  -Hartree energ DENC   =   -131190.68590508
  -exchange      EXHF   =         0.00000000
  -V(xc)+E(xc)   XCENC  =     -2585.13187479
  PAW double counting   =     31877.88931298   -27843.41460458
  entropy T*S    EENTRO =        -0.00837438
  eigenvalues    EBANDS =     -5051.28529849
  atomic energy  EATOM  =     27476.15622780
  Solvation  Ediel_sol  =         0.00000000
  ---------------------------------------------------
  free energy    TOTEN  =      -723.10271033 eV

  energy without entropy =     -723.09433594  energy(sigma->0) =     -723.10061673


--------------------------------------------------------------------------------------------------------




----------------------------------------- Iteration    1(   9)  ---------------------------------------


    POTLOK:  cpu time    0.0960: real time    0.0960
    SETDIJ:  cpu time    0.0089: real time    0.0089
    EDDIAG:  cpu time    1.3426: real time    1.3426
  RMM-DIIS:  cpu time   19.2579: real time   19.2588
    ORTHCH:  cpu time    0.3367: real time    0.3367
       DOS:  cpu time    0.0016: real time    0.0016
    CHARGE:  cpu time    0.3329: real time    0.3329
    MIXING:  cpu time    0.0040: real time    0.0046
    --------------------------------------------
      LOOP:  cpu time   21.3823: real time   21.3899

 eigenvalue-minimisations  :  3607
 total energy-change (2. order) : 0.3893454E+02  (-0.6423817E+01)
 number of electron     446.0000107 magnetization 
 augmentation part       56.4979900 magnetization 

 Broyden mixing:
  rms(total) = 0.19993E+01    rms(broyden)= 0.19992E+01
  rms(prec ) = 0.22618E+01
  weight for this iteration     100.00

 eigenvalues of (default mixing * dielectric matrix)
  average eigenvalue GAMMA=   0.7391
  1.6869  0.5265  0.5265  0.2165

 Free energy of the ion-electron system (eV)
  ---------------------------------------------------
  alpha Z        PSCENC =       706.24766912
  Ewald energy   TEWEN  =    105887.13013710
  -Hartree energ DENC   =   -131147.71013906
  -exchange      EXHF   =         0.00000000
  -V(xc)+E(xc)   XCENC  =     -2582.04837027
  PAW double counting   =     32975.33137935   -28933.78919422
  entropy T*S    EENTRO =         0.00482757
  eigenvalues    EBANDS =     -5065.49070642
  atomic energy  EATOM  =     27476.15622780
  Solvation  Ediel_sol  =         0.00000000
  ---------------------------------------------------
  free energy    TOTEN  =      -684.16816902 eV

  energy without entropy =     -684.17299659  energy(sigma->0) =     -684.16937591


--------------------------------------------------------------------------------------------------------




----------------------------------------- Iteration    1(  10)  ---------------------------------------


    POTLOK:  cpu time    0.0968: real time    0.0968
    SETDIJ:  cpu time    0.0090: real time    0.0090
    EDDIAG:  cpu time    1.3183: real time    1.3183
  RMM-DIIS:  cpu time   21.6910: real time   21.6911
    ORTHCH:  cpu time    0.3362: real time    0.3363
       DOS:  cpu time    0.0016: real time    0.0016
    CHARGE:  cpu time    0.3439: real time    0.3439
    MIXING:  cpu time    0.0042: real time    0.0042
    --------------------------------------------
      LOOP:  cpu time   23.8024: real time   23.8091

 eigenvalue-minimisations  :  4044
 total energy-change (2. order) : 0.3451814E+01  (-0.6332221E+01)
 number of electron     446.0000104 magnetization 
 augmentation part       60.9593006 magnetization 

 Broyden mixing:
  rms(total) = 0.12901E+01    rms(broyden)= 0.12901E+01
  rms(prec ) = 0.17236E+01
  weight for this iteration     100.00

 eigenvalues of (default mixing * dielectric matrix)
  average eigenvalue GAMMA=   0.7420
  1.9397  0.6083  0.6083  0.3492  0.2046

 Free energy of the ion-electron system (eV)
  ---------------------------------------------------
  alpha Z        PSCENC =       706.24766912
  Ewald energy   TEWEN  =    105887.13013710
  -Hartree energ DENC   =   -131259.30329014
  -exchange      EXHF   =         0.00000000
  -V(xc)+E(xc)   XCENC  =     -2576.41383405
  PAW double counting   =     34001.71687643   -29952.46899242
  entropy T*S    EENTRO =        -0.00306388
  eigenvalues    EBANDS =     -4963.77808510
  atomic energy  EATOM  =     27476.15622780
  Solvation  Ediel_sol  =         0.00000000
  ---------------------------------------------------
  free energy    TOTEN  =      -680.71635513 eV

  energy without entropy =     -680.71329125  energy(sigma->0) =     -680.71558916


--------------------------------------------------------------------------------------------------------




----------------------------------------- Iteration    1(  11)  ---------------------------------------


    POTLOK:  cpu time    0.0967: real time    0.0967
    SETDIJ:  cpu time    0.0091: real time    0.0091
    EDDIAG:  cpu time    1.3141: real time    1.3141
  RMM-DIIS:  cpu time   22.8766: real time   22.8767
    ORTHCH:  cpu time    0.3369: real time    0.3369
       DOS:  cpu time    0.0017: real time    0.0017
    CHARGE:  cpu time    0.3341: real time    0.3341
    MIXING:  cpu time    0.0044: real time    0.0044
    --------------------------------------------
      LOOP:  cpu time   24.9753: real time   24.9806

 eigenvalue-minimisations  :  4290
 total energy-change (2. order) : 0.2077562E+01  (-0.3101807E+01)
 number of electron     446.0000105 magnetization 
 augmentation part       60.9693021 magnetization 

 Broyden mixing:
  rms(total) = 0.10220E+01    rms(broyden)= 0.10220E+01
  rms(prec ) = 0.12791E+01
  weight for this iteration     100.00

 eigenvalues of (default mixing * dielectric matrix)
  average eigenvalue GAMMA=   0.7015
  1.9570  0.8160  0.4744  0.4744  0.2039  0.2837

 Free energy of the ion-electron system (eV)
  ---------------------------------------------------
  alpha Z        PSCENC =       706.24766912
  Ewald energy   TEWEN  =    105887.13013710
  -Hartree energ DENC   =   -131306.81593818
  -exchange      EXHF   =         0.00000000
  -V(xc)+E(xc)   XCENC  =     -2574.14837662
  PAW double counting   =     34831.92120728   -30780.30035599
  entropy T*S    EENTRO =         0.00284454
  eigenvalues    EBANDS =     -4918.83220769
  atomic energy  EATOM  =     27476.15622780
  Solvation  Ediel_sol  =         0.00000000
  ---------------------------------------------------
  free energy    TOTEN  =      -678.63879265 eV

  energy without entropy =     -678.64163719  energy(sigma->0) =     -678.63950378


--------------------------------------------------------------------------------------------------------




----------------------------------------- Iteration    1(  12)  ---------------------------------------


    POTLOK:  cpu time    0.0968: real time    0.0968
    SETDIJ:  cpu time    0.0089: real time    0.0089
    EDDIAG:  cpu time    1.3113: real time    1.3113
  RMM-DIIS:  cpu time   19.6104: real time   19.6105
    ORTHCH:  cpu time    0.3374: real time    0.3374
       DOS:  cpu time    0.0016: real time    0.0016
    CHARGE:  cpu time    0.3326: real time    0.3326
    MIXING:  cpu time    0.0046: real time    0.0046
    --------------------------------------------
      LOOP:  cpu time   21.7052: real time   21.7120

[...]

  length of vectors
    13.771350861  9.564481735 27.662570434     0.072614518  0.104553496  0.036149931


 FORCES acting on ions
    electron-ion (+dipol)            ewald-force                    non-local-force                 convergence-correction
 -----------------------------------------------------------------------------------------------
   -.468E+02 -.349E+02 0.457E+03   0.466E+02 0.347E+02 -.457E+03   0.114E+00 0.852E-01 -.838E+00   -.161E-02 -.156E-03 -.463E-04
   -.157E+02 -.184E+02 0.801E+01   0.154E+02 0.185E+02 -.901E+01   0.215E+00 -.150E+00 0.992E+00   0.335E-03 -.331E-03 -.245E-02
   0.717E+02 0.445E+02 -.210E+03   -.738E+02 -.420E+02 0.209E+03   0.213E+01 -.253E+01 0.122E+01   0.630E-03 0.507E-03 -.128E-02
   0.551E+01 0.479E+01 0.291E+03   -.541E+01 -.459E+01 -.291E+03   -.126E+00 -.269E+00 -.261E+00   -.557E-03 -.118E-03 -.109E-02
   -.613E+02 0.602E+01 0.393E+02   0.609E+02 -.551E+01 -.399E+02   0.427E+00 -.516E+00 0.607E+00   0.111E-02 -.107E-02 -.208E-02
   -.449E+02 0.485E+01 0.405E+03   0.441E+02 -.422E+01 -.403E+03   0.699E+00 -.103E+01 -.225E+01   0.393E-03 0.107E-02 0.265E-03
   -.355E+03 0.195E+01 0.911E+03   0.355E+03 -.135E+01 -.913E+03   0.203E+00 -.189E+00 0.994E+00   0.218E-02 0.810E-03 -.106E-01
   -.218E+03 -.623E+02 -.126E+04   0.216E+03 0.643E+02 0.125E+04   0.227E+01 -.202E+01 0.149E+01   -.221E-02 0.145E-02 -.431E-02
   0.963E+02 -.699E+01 0.196E+04   -.959E+02 0.585E+01 -.195E+04   -.547E+00 0.620E+00 -.435E+01   0.744E-03 0.653E-04 -.430E-02
   0.159E+03 -.156E+02 0.132E+03   -.159E+03 0.153E+02 -.131E+03   0.430E+00 0.245E+00 -.151E+01   -.311E-03 -.205E-02 -.134E-01
   -.516E+02 0.141E+03 0.202E+04   0.523E+02 -.141E+03 -.202E+04   -.498E+00 -.433E+00 -.270E+01   0.634E-03 0.860E-03 -.290E-02
   0.679E+02 0.416E+02 0.180E+03   -.675E+02 -.420E+02 -.180E+03   -.379E+00 0.402E+00 -.318E+00   -.855E-03 0.156E-02 -.108E-01
   -.395E+03 -.111E+02 0.119E+04   0.396E+03 0.101E+02 -.119E+04   -.570E+00 0.127E+01 -.128E+01   -.668E-02 -.134E-03 -.551E-02
   -.208E+03 0.184E+03 -.110E+04   0.210E+03 -.186E+03 0.110E+04   -.173E+01 0.151E+01 0.425E+00   0.403E-02 -.269E-02 -.481E-02
   0.288E+03 -.119E+03 0.187E+04   -.288E+03 0.120E+03 -.187E+04   0.264E+00 -.383E+00 -.425E+01   0.413E-02 0.566E-02 -.382E-02
   0.323E+03 -.976E+02 0.100E+03   -.323E+03 0.974E+02 -.997E+02   0.540E+00 0.216E+00 -.208E+00   -.385E-02 -.107E-02 -.689E-02
   -.161E+02 0.389E+01 0.361E+03   0.156E+02 -.375E+01 -.361E+03   0.749E+00 -.188E+00 0.221E+00   0.795E-03 0.500E-04 -.305E-02
   -.289E+02 -.450E+02 -.443E+03   0.283E+02 0.444E+02 0.442E+03   0.547E+00 0.677E+00 0.736E+00   0.263E-02 -.680E-03 -.251E-02
   0.167E+03 -.112E+02 0.357E+03   -.166E+03 0.111E+02 -.358E+03   -.148E+01 0.516E+00 0.640E+00   0.168E-02 0.207E-02 -.256E-02
   0.182E+03 -.746E+01 -.438E+03   -.181E+03 0.926E+01 0.435E+03   -.960E+00 -.182E+01 0.246E+01   -.127E-02 0.145E-02 -.369E-02
   0.117E+03 -.495E+01 0.115E+03   -.116E+03 0.404E+01 -.116E+03   -.393E+00 0.906E+00 0.101E+01   0.375E-04 -.115E-02 -.121E-02
   0.114E+03 -.562E+02 0.569E+03   -.113E+03 0.562E+02 -.566E+03   -.818E+00 -.222E+00 -.266E+01   0.244E-02 0.448E-04 0.416E-04
   -.109E+03 0.686E+02 0.808E+02   0.109E+03 -.677E+02 -.824E+02   -.100E+00 -.843E+00 0.157E+01   -.119E-02 -.147E-03 -.281E-02
   -.975E+02 0.598E+02 0.622E+03   0.968E+02 -.593E+02 -.619E+03   0.457E+00 -.502E+00 -.290E+01   -.164E-02 0.181E-02 0.261E-03
   0.703E+02 -.213E+02 0.305E+03   -.713E+02 0.206E+02 -.305E+03   0.969E+00 0.965E+00 -.733E+00   0.372E-03 0.120E-02 -.242E-02
   0.385E+02 -.155E+02 -.378E+03   -.391E+02 0.156E+02 0.377E+03   0.636E+00 -.880E-01 0.346E+00   -.518E-03 0.117E-02 -.224E-02
   -.159E+03 0.353E+01 -.315E+03   0.160E+03 -.491E+01 0.314E+03   -.372E+00 0.138E+01 0.125E+01   -.696E-03 -.478E-03 -.894E-03
   -.152E+03 0.811E+01 0.335E+03   0.151E+03 -.801E+01 -.336E+03   0.140E+00 -.341E+00 -.349E-02   -.205E-03 0.201E-02 -.126E-02
   -.147E+03 -.551E+01 0.586E+03   0.146E+03 0.548E+01 -.583E+03   0.797E+00 -.439E-01 -.260E+01   -.982E-03 0.417E-03 0.104E-02
   -.177E+03 -.215E+02 0.519E+02   0.176E+03 0.216E+02 -.533E+02   0.104E+01 -.149E+00 0.139E+01   -.881E-03 0.612E-03 -.198E-02
   0.832E+02 0.905E+01 0.307E+03   -.834E+02 -.862E+01 -.308E+03   0.694E-01 -.126E+00 -.144E+00   0.694E-03 -.775E-03 -.258E-02
   0.105E+03 0.258E+02 -.363E+03   -.104E+03 -.251E+02 0.362E+03   -.999E+00 -.696E+00 0.891E+00   0.212E-02 -.125E-02 -.262E-02
   0.674E+02 0.135E+02 0.469E+02   -.676E+02 -.132E+02 -.471E+02   0.159E+00 -.317E+00 0.224E+00   0.430E-04 0.508E-03 -.252E-02
   0.338E+02 -.164E+01 0.599E+03   -.346E+02 0.158E+01 -.597E+03   0.670E+00 0.153E-01 -.245E+01   -.100E-02 -.181E-03 -.635E-03
   0.123E+03 0.160E+02 0.304E+03   -.123E+03 -.163E+02 -.304E+03   -.782E+00 0.660E+00 -.361E+00   0.998E-03 0.221E-03 -.169E-02
   0.966E+02 0.132E+02 -.389E+03   -.951E+02 -.117E+02 0.388E+03   -.154E+01 -.155E+01 0.138E+01   -.541E-03 0.954E-03 -.258E-02
   0.117E+03 0.126E+02 0.331E+03   -.117E+03 -.123E+02 -.330E+03   0.198E+00 -.506E+00 -.852E+00   -.607E-04 -.137E-02 -.136E-02
   0.857E+02 -.396E+02 -.378E+03   -.875E+02 0.397E+02 0.377E+03   0.184E+01 -.129E+00 0.108E+01   -.113E-02 -.919E-03 -.225E-02
   0.124E+03 0.400E+02 0.536E+03   -.124E+03 -.398E+02 -.533E+03   0.167E+00 -.496E+00 -.274E+01   0.130E-02 0.587E-05 -.113E-02
   0.130E+03 0.287E+02 0.674E+02   -.130E+03 -.280E+02 -.678E+02   -.294E+00 -.741E+00 0.455E+00   -.416E-04 0.108E-02 -.336E-02
   -.962E+02 -.112E+01 0.591E+03   0.964E+02 0.115E+01 -.587E+03   -.405E+00 -.524E-01 -.295E+01   -.607E-03 -.336E-03 0.686E-04
   -.105E+03 -.925E+01 0.618E+02   0.104E+03 0.932E+01 -.616E+02   0.657E+00 -.711E-01 -.197E+00   0.281E-03 -.610E-03 -.289E-02
   0.127E+03 0.296E+02 0.557E+03   -.127E+03 -.299E+02 -.555E+03   -.266E+00 0.352E+00 -.254E+01   0.989E-03 -.136E-02 -.136E-02
   0.103E+03 0.871E+00 0.663E+02   -.102E+03 -.810E-01 -.675E+02   -.986E+00 -.787E+00 0.121E+01   0.516E-03 0.656E-04 -.384E-02
   0.459E+02 -.556E+01 -.373E+03   -.454E+02 0.340E+01 0.372E+03   -.553E+00 0.216E+01 0.160E+01   -.542E-03 -.948E-03 -.199E-02
   0.115E+03 -.975E+01 0.340E+03   -.115E+03 0.946E+01 -.340E+03   0.518E+00 0.354E+00 -.164E+00   0.424E-03 -.456E-03 -.229E-02
   0.387E+02 0.340E+01 0.297E+03   -.384E+02 -.339E+01 -.297E+03   -.346E+00 0.315E-01 -.368E-01   -.610E-03 -.911E-03 -.723E-03
   -.161E+02 0.237E+02 -.363E+03   0.154E+02 -.241E+02 0.361E+03   0.722E+00 0.394E+00 0.167E+01   -.155E-03 0.129E-02 -.205E-02
   -.397E+02 -.300E+00 0.545E+03   0.400E+02 0.648E+00 -.542E+03   -.657E-01 -.299E+00 -.284E+01   -.538E-03 -.128E-02 0.214E-03
   -.700E+02 0.309E+02 0.962E+02   0.698E+02 -.311E+02 -.963E+02   0.183E+00 0.189E+00 0.862E-01   0.713E-03 0.144E-02 -.269E-02
   0.512E+02 -.324E+01 0.528E+03   -.511E+02 0.258E+01 -.525E+03   -.241E-01 0.158E+00 -.307E+01   0.761E-03 0.857E-03 -.155E-03
   0.133E+02 -.155E+02 0.333E+02   -.120E+02 0.156E+02 -.329E+02   -.124E+01 -.115E+00 -.431E+00   0.106E-03 -.167E-03 -.216E-02
   -.687E+02 -.554E+01 0.327E+03   0.687E+02 0.565E+01 -.328E+03   -.329E-01 0.370E+00 0.447E-02   -.374E-03 -.175E-03 -.131E-02
   -.501E+02 -.620E+02 -.379E+03   0.514E+02 0.617E+02 0.377E+03   -.138E+01 0.321E+00 0.239E+01   0.468E-03 -.373E-04 -.124E-02
   0.390E+02 0.126E+01 0.540E+03   -.383E+02 -.115E+01 -.536E+03   -.870E+00 -.298E+00 -.330E+01   0.162E-03 -.824E-03 0.219E-03
   0.673E+02 -.257E+02 0.714E+02   -.673E+02 0.263E+02 -.714E+02   0.657E-02 -.612E+00 0.790E-02   0.163E-03 -.943E-05 -.250E-02
   -.911E+02 0.342E+01 0.300E+03   0.907E+02 -.352E+01 -.300E+03   0.354E+00 -.164E+00 -.973E+00   0.475E-03 0.441E-03 -.161E-02
   -.126E+03 0.833E+00 -.451E+03   0.124E+03 -.165E+01 0.449E+03   0.218E+01 0.820E+00 0.163E+01   0.297E-03 -.654E-03 -.128E-02
   0.522E+02 0.524E+02 -.309E+03   -.519E+02 -.524E+02 0.309E+03   -.319E+00 0.183E-02 -.137E+00   0.184E-03 -.105E-02 -.194E-02
   0.459E+02 -.646E+01 0.326E+03   -.453E+02 0.630E+01 -.326E+03   -.609E+00 0.418E+00 -.305E+00   0.325E-03 0.962E-03 -.133E-02
   -.139E+03 -.429E+02 0.619E+03   0.139E+03 0.423E+02 -.615E+03   0.833E+00 0.523E-01 -.328E+01   -.122E-02 -.140E-02 0.249E-03
   -.126E+03 -.397E+02 0.401E+02   0.126E+03 0.393E+02 -.397E+02   0.172E+00 0.340E+00 -.367E+00   -.674E-03 0.507E-03 -.297E-02
   -.150E+03 0.392E+01 0.322E+03   0.149E+03 -.414E+01 -.322E+03   0.616E+00 0.634E+00 0.150E+00   -.606E-03 -.179E-02 -.198E-02
   -.112E+03 -.201E+02 -.356E+03   0.110E+03 0.205E+02 0.355E+03   0.143E+01 -.437E+00 0.712E+00   -.548E-03 0.786E-03 -.121E-02
   0.116E+03 0.358E+02 -.628E+03   -.117E+03 -.368E+02 0.633E+03   0.709E+00 0.105E+01 -.555E+01   -.132E-02 -.474E-02 -.403E-02
   -.103E+03 0.423E+02 -.915E+03   0.103E+03 -.472E+02 0.932E+03   -.247E-01 0.498E+01 -.165E+02   -.299E-03 0.171E-02 -.120E-02
   0.168E+03 0.599E+01 -.605E+03   -.169E+03 -.697E+01 0.610E+03   0.109E+00 0.975E+00 -.521E+01   -.430E-02 0.447E-02 -.364E-02
   -.114E+03 0.110E+02 -.776E+03   0.114E+03 -.959E+01 0.788E+03   -.603E+00 -.143E+01 -.123E+02   0.298E-02 -.183E-02 -.514E-03
   0.102E+03 -.112E+01 -.862E+03   -.101E+03 0.414E+01 0.881E+03   -.542E+00 -.302E+01 -.191E+02   -.583E-03 -.130E-02 -.308E-02
   0.113E+03 -.121E+02 -.950E+03   -.112E+03 0.120E+02 0.970E+03   -.103E+01 0.150E+00 -.204E+02   -.519E-02 0.371E-02 0.116E-02
   -.123E+03 -.148E+03 -.102E+04   0.125E+03 0.149E+03 0.104E+04   -.238E+01 -.769E+00 -.209E+02   -.252E-03 -.296E-02 -.244E-02
   0.855E+02 -.160E+01 -.100E+04   -.874E+02 0.282E+01 0.103E+04   0.187E+01 -.122E+01 -.222E+02   0.472E-02 0.179E-03 0.308E-02
   0.291E+02 -.293E+02 -.917E+03   -.276E+02 0.259E+02 0.937E+03   -.152E+01 0.338E+01 -.195E+02   -.868E-03 -.256E-02 0.147E-03
   0.868E+02 0.297E+02 -.958E+03   -.894E+02 -.262E+02 0.977E+03   0.258E+01 -.342E+01 -.189E+02   0.629E-02 0.430E-04 0.192E-03
   0.102E+03 -.270E+02 -.888E+03   -.103E+03 0.285E+02 0.909E+03   0.110E+01 -.147E+01 -.208E+02   -.494E-03 0.375E-02 0.164E-03
   -.181E+03 -.178E+02 -.105E+04   0.177E+03 0.221E+02 0.107E+04   0.361E+01 -.435E+01 -.197E+02   -.153E-02 -.371E-02 -.372E-03
   -.328E+03 -.639E+02 -.592E+03   0.330E+03 0.682E+02 0.598E+03   -.261E+01 -.429E+01 -.626E+01   -.451E-02 0.192E-02 0.207E-03
   0.162E+03 0.642E+02 -.105E+04   -.163E+03 -.672E+02 0.108E+04   0.180E+01 0.307E+01 -.242E+02   0.567E-02 -.670E-03 -.108E-02
   -.465E+02 0.727E+02 -.482E+03   0.488E+02 -.754E+02 0.488E+03   -.233E+01 0.269E+01 -.579E+01   -.256E-02 0.171E-02 -.638E-03
   0.133E+03 0.586E+01 -.169E+03   -.132E+03 -.551E+01 0.168E+03   -.607E+00 -.337E+00 0.126E+01   -.755E-03 -.118E-02 -.420E-02
   -.997E+02 0.236E+01 -.167E+03   0.978E+02 -.194E+01 0.167E+03   0.195E+01 -.423E+00 0.159E+00   0.235E-03 0.116E-02 -.395E-02
 -----------------------------------------------------------------------------------------------
   -.678E+01 0.747E+01 0.261E+03   -.199E-12 0.176E-12 -.261E-11   0.678E+01 -.747E+01 -.261E+03   -.174E-02 0.503E-02 -.175E+00
 
 
 POSITION                                       TOTAL-FORCE (eV/Angst)
 -----------------------------------------------------------------------------------
      8.57631      8.29685     10.39845        -0.073142     -0.168411      0.021687
      8.52602      3.79451     15.13789         0.003101     -0.014146     -0.006889
      8.12253      6.00306     17.24477         0.004940      0.011383      0.004206
      8.51616      0.79995     12.43874        -0.022403     -0.067916      0.033369
     13.51028      6.11675     15.18360         0.000677     -0.003006     -0.005343
     13.49094      1.15316     10.44749        -0.023929     -0.391758     -0.025389
     10.03344      3.28428     12.67411         0.046892      0.407890     -0.398398
      9.99055      8.11693     17.50166         0.011933      0.008415      0.007811
      7.12524      5.81577     10.15765        -0.179445     -0.522460      0.847159
      7.04617      1.26642     15.07995         0.003985      0.008257      0.008250
      8.51222      3.28036     10.20450         0.224802      0.074569      0.818312
      8.56496      8.32412     14.95082         0.005085      0.007001      0.003448
     10.22263      8.06723     12.77991         0.406158      0.238677     -0.003166
     10.22190      3.75864     17.54073         0.012361      0.002654      0.005230
      5.42664      8.10481     10.20639         0.314383      0.045952      0.897908
      5.35628      3.54104     15.12994         0.008653      0.010829      0.012124
      8.52843      5.75423     12.65640         0.324849     -0.051679      0.072692
      8.68292      1.15157     17.46625        -0.014936      0.025811     -0.010308
      3.84829      7.97317     12.47259        -0.570873      0.473545     -0.448263
      3.74373      3.32274     17.41971         0.012775     -0.018872     -0.002718
      3.75784      5.60689     14.78131        -0.000048      0.000518     -0.002030
      3.90063      0.73891     10.00000         0.488374     -0.145864      0.353590
     10.22060      6.07833     15.14879         0.001647     -0.003082      0.001637
     10.19112      1.10470     10.13736        -0.204868      0.007385      0.278954
      6.82945      7.99424     12.66670        -0.008171      0.284476     -0.394478
      6.86284      3.49074     17.59190        -0.005574     -0.006666     -0.002361
     11.94951      6.21085     17.48455        -0.000726     -0.001193      0.005399
     11.66772      1.05372     12.57547        -0.314922     -0.241857     -0.670384
     11.73919      3.33868     10.41199        -0.217529     -0.077580      0.597458
     11.86789      8.37092     15.39162        -0.000455      0.001633      0.004879
      7.18522      3.24644     12.75390        -0.148742      0.298192     -0.331808
      7.22698      8.48060     17.39530        -0.005167      0.005888      0.001864
      6.85067      6.03811     14.82823        -0.003848     -0.000031      0.000505
      6.87795      0.97560     10.08695        -0.047999     -0.039682      0.213970
      5.51084      5.55012     12.48419        -0.153661      0.418962     -0.510598
      5.50889      0.95977     17.53159         0.005180     -0.003147     -0.000269
      3.51249      3.50019     12.83519         0.102977     -0.210955     -0.278454
      3.18750      8.70766     17.54913         0.008857      0.000416     -0.005722
      3.46798      5.87237     10.40868         0.077393     -0.274960     -0.055751
      3.51119      1.28799     15.13877        -0.002209      0.002517      0.001879
     11.91771      8.21633     10.24534        -0.240430     -0.019937      0.784614
     11.93663      3.60013     15.17926         0.001821      0.000662      0.000401
      5.24135      3.36543     10.32679         0.142598      0.068367      0.141364
      5.14386      8.30203     15.12864        -0.003249      0.002845      0.001425
      5.20538      6.17169     17.42541        -0.001521     -0.000812      0.004177
      5.28930      0.99064     12.60849         0.271425      0.062996     -0.329690
      1.60538      5.84491     12.85122        -0.076944      0.044508     -0.621145
      1.35015      1.49328     17.52373        -0.005310      0.002499     -0.000083
     13.72038      5.67134     10.18293         0.203714      0.047835      0.600634
     13.66963      0.98858     14.86899        -0.000332      0.001703     -0.002778
      1.63456      8.33987     10.36453         0.066329     -0.502726      0.138140
      1.60335      3.69588     15.30445         0.003899      0.003754      0.000371
     13.76831      3.16119     12.53308        -0.013541      0.481379     -0.642383
      0.36288      8.21507     17.75818        -0.007295      0.001143      0.001895
      1.99440      3.17314     10.17666        -0.154258     -0.187955      0.602989
      1.86171      8.12762     15.08671        -0.000233      0.003294     -0.001511
     13.48051      8.37930     12.86886         0.002774     -0.262010     -0.967421
     13.29552      3.90435     18.04783         0.002990     -0.000506      0.002133
      1.96532      5.84907     17.45587        -0.000482      0.000472      0.001174
      2.02729      0.87737     12.46815        -0.013214      0.261905     -0.517483
     10.07171      5.79402     10.14663         0.173333     -0.569029      0.200980
     10.10440      1.23610     14.93663         0.001074      0.001446     -0.002119
     11.97051      5.66181     12.67660        -0.518462      0.405639     -0.479604
     11.85891      1.14453     17.59418        -0.001940      0.001949      0.001512
      5.21436      8.41245     17.48679         0.000946      0.003441      0.007498
     13.48972      1.96533     18.79960         0.006412     -0.000332     -0.000913
      3.46869      1.16312     17.56354         0.008218      0.003827      0.004831
      0.01763      6.05268     18.35001         0.003279      0.003960      0.002581
      3.71813      5.06649     18.39797         0.005068      0.004838      0.002607
      5.37249      2.72053     18.49130         0.004619      0.005223      0.008720
     10.19048      0.28861     18.56148         0.008262      0.002707     -0.003314
      7.08814      0.53910     18.57085         0.005944      0.002226      0.000190
      2.19290      7.62435     18.73444         0.008231      0.005672      0.004333
      8.58276      3.00229     18.40439         0.009760      0.001985      0.000236
      6.85846      5.25056     18.34942         0.006443      0.002809      0.005084
     11.50191      4.71174     18.76309         0.005185      0.002887      0.001299
     12.04049      8.33134     17.56661         0.004575     -0.000001      0.005595
      8.35447      7.43071     18.47803         0.005463      0.004160      0.001161
      9.95135      5.96286     17.29184         0.005877      0.003034      0.003248
      3.47892      7.02560     16.24601         0.005853      0.007555      0.002473
     13.63223      2.62412     16.29580         0.006746      0.004878     -0.003219
 -----------------------------------------------------------------------------------
    total drift:                               -0.000014      0.003971      0.002625


--------------------------------------------------------------------------------------------------------



  FREE ENERGIE OF THE ION-ELECTRON SYSTEM (eV)
  ---------------------------------------------------
  free  energy   TOTEN  =      -675.53785578 eV

  energy  without entropy=     -675.52879776  energy(sigma->0) =     -675.53559128
 


--------------------------------------------------------------------------------------------------------


    POTLOK:  cpu time    0.1140: real time    0.1151


--------------------------------------------------------------------------------------------------------


     LOOP+:  cpu time  824.9479: real time  825.3513
    4ORBIT:  cpu time    0.0000: real time    0.0000

 total amount of memory used by VASP on root node   135944. kBytes
========================================================================

   base      :      30000. kBytes
   nonl-proj :      28495. kBytes
   fftplans  :       6516. kBytes
   grid      :      15878. kBytes
   one-center:         62. kBytes
   wavefun   :      54993. kBytes
 
  
  
 General timing and accounting informations for this job:
 ========================================================
  
                  Total CPU time used (sec):      843.056
                            User time (sec):      839.324
                          System time (sec):        3.732
                         Elapsed time (sec):      843.610
  
                   Maximum memory used (kb):      171032.
                   Average memory used (kb):           0.
  
                          Minor page faults:        51185
                          Major page faults:            0
                 Voluntary context switches:         2592
