 vasp.5.4.1 05Feb16 (build Mar 19 2020 08:54:17) complex                        
  
 executed on           IFC91_ompi date 2021.11.07  10:26:50
 running on   48 total cores
 distrk:  each k-point on   48 cores,    1 groups
 distr:  one band on NCORES_PER_BAND=  24 cores,    2 groups


--------------------------------------------------------------------------------------------------------


 INCAR:
 POTCAR:    PAW_PBE Al 04Jan2001                  
 POTCAR:    PAW_PBE Nb_sv 25May2007               
 POTCAR:    PAW_PBE Ta 17Jan2003                  
 POTCAR:    PAW_PBE Ti 08Apr2002                  
 POTCAR:   PAW_PBE Zr 08Apr2002                   
 POTCAR:    PAW_PBE O 08Apr2002                   

 ----------------------------------------------------------------------------- 
|                                                                             |
|           W    W    AA    RRRRR   N    N  II  N    N   GGGG   !!!           |
|           W    W   A  A   R    R  NN   N  II  NN   N  G    G  !!!           |
|           W    W  A    A  R    R  N N  N  II  N N  N  G       !!!           |
|           W WW W  AAAAAA  RRRRR   N  N N  II  N  N N  G  GGG   !            |
|           WW  WW  A    A  R   R   N   NN  II  N   NN  G    G                |
|           W    W  A    A  R    R  N    N  II  N    N   GGGG   !!!           |
|                                                                             |
|      For optimal performance we recommend to set                            |
|        NCORE= 4 - approx SQRT( number of cores)                             |
|      NCORE specifies how many cores store one orbital (NPAR=cpu/NCORE).     |
|      This setting can  greatly improve the performance of VASP for DFT.     |
|      The default, NPAR=number of cores might be grossly inefficient         |
|      on modern multi-core architectures or massively parallel machines.     |
|      Do your own testing !!!!                                               |
|      Unfortunately you need to use the default for GW and RPA calculations. |
|      (for HF NCORE is supported but not extensively tested yet)             |
|                                                                             |
 ----------------------------------------------------------------------------- 

 POTCAR:    PAW_PBE Al 04Jan2001                  
   VRHFIN =Al: s2p1                                                             
   LEXCH  = PE                                                                  
   EATOM  =    53.5387 eV,    3.9350 Ry                                         
                                                                                
   TITEL  = PAW_PBE Al 04Jan2001                                                
   LULTRA =        F    use ultrasoft PP ?                                      
   IUNSCR =        1    unscreen: 0-lin 1-nonlin 2-no                           
   RPACOR =    1.500    partial core radius                                     
   POMASS =   26.981; ZVAL   =    3.000    mass and valenz                      
   RCORE  =    1.900    outmost cutoff radius                                   
   RWIGS  =    2.650; RWIGS  =    1.402    wigner-seitz radius (au A)           
   ENMAX  =  240.300; ENMIN  =  180.225 eV                                      
   ICORE  =        2    local potential                                         
   LCOR   =        T    correct aug charges                                     
   LPAW   =        T    paw PP                                                  
   EAUG   =  291.052                                                            
   DEXC   =    0.000                                                            
   RMAX   =    1.939    core radius for proj-oper                               
   RAUG   =    1.300    factor for augmentation sphere                          
   RDEP   =    1.966    radius for radial grids                                 
   RDEPT  =    1.856    core radius for aug-charge                              
                                                                                
   Atomic configuration                                                         
    6 entries                                                                   
     n  l   j            E        occ.                                          
     1  0  0.50     -1511.1048   2.0000                                         
     2  0  0.50      -108.1629   2.0000                                         
     2  1  1.50       -69.6402   6.0000                                         
     3  0  0.50        -7.7528   2.0000                                         
     3  1  1.50        -2.7121   1.0000                                         
     3  2  2.50        -2.7212   0.0000                                         
   Description                                                                  
     l       E           TYP  RCUT    TYP  RCUT                                 
     0     -7.7528455     23  1.900                                             
     0     -3.3096929     23  1.900                                             
     1     -2.7120682     23  1.900                                             
     1     13.6058260     23  1.900                                             
     2     -2.7211652      7  1.900                                             
  local pseudopotential read in
  partial core-charges read in
  partial kinetic energy density read in
  atomic valenz-charges read in
  non local Contribution for L=           0  read in
    real space projection operators read in
  non local Contribution for L=           0  read in
    real space projection operators read in
  non local Contribution for L=           1  read in
    real space projection operators read in
  non local Contribution for L=           1  read in
    real space projection operators read in
    PAW grid and wavefunctions read in
 
   number of l-projection  operators is LMAX  =           4
   number of lm-projection operators is LMMAX =           8
 
 POTCAR:    PAW_PBE Nb_sv 25May2007               
   VRHFIN =Nb: 4p5s4d                                                           
   LEXCH  = PE                                                                  
   EATOM  =  1555.1913 eV,  114.3033 Ry                                         
                                                                                
   TITEL  = PAW_PBE Nb_sv 25May2007                                             
   LULTRA =        F    use ultrasoft PP ?                                      
   IUNSCR =        1    unscreen: 0-lin 1-nonlin 2-no                           
   RPACOR =    1.800    partial core radius                                     
   POMASS =   92.910; ZVAL   =   13.000    mass and valenz                      
   RCORE  =    2.400    outmost cutoff radius                                   
   RWIGS  =    2.400; RWIGS  =    1.270    wigner-seitz radius (au A)           
   ENMAX  =  293.235; ENMIN  =  219.927 eV                                      
   ICORE  =        3    local potential                                         
   LCOR   =        T    correct aug charges                                     
   LPAW   =        T    paw PP                                                  
   EAUG   =  455.659                                                            
   DEXC   =    0.000                                                            
   RMAX   =    2.456    core radius for proj-oper                               
   RAUG   =    1.300    factor for augmentation sphere                          
   RDEP   =    2.451    radius for radial grids                                 
   RDEPT  =    1.956    core radius for aug-charge                              
                                                                                
   Atomic configuration                                                         
   11 entries                                                                   
     n  l   j            E        occ.                                          
     1  0  0.50    -18805.2457   2.0000                                         
     2  0  0.50     -2630.2869   2.0000                                         
     2  1  1.50     -2348.4046   6.0000                                         
     3  0  0.50      -438.8757   2.0000                                         
     3  1  1.50      -346.7588   6.0000                                         
     3  2  2.50      -196.2560  10.0000                                         
     4  0  0.50       -58.3859   2.0000                                         
     5  0  0.50        -3.9816   1.0000                                         
     4  1  1.50       -34.5141   6.0000                                         
     4  2  2.50        -3.0408   4.0000                                         
     4  3  2.50        -1.3606   0.0000                                         
   Description                                                                  
     l       E           TYP  RCUT    TYP  RCUT                                 
     0    -58.3859094     23  2.200                                             
     0     -3.9816262     23  2.200                                             
     1    -34.5140738     23  2.200                                             
     1     13.6058260     23  2.200                                             
     2     -3.0408010     23  2.200                                             
     2     -0.1283038     23  2.200                                             
     3     -1.3605826     23  2.400                                             
  local pseudopotential read in
  partial core-charges read in
  partial kinetic energy density read in
  atomic valenz-charges read in
  non local Contribution for L=           0  read in
    real space projection operators read in
  non local Contribution for L=           0  read in
    real space projection operators read in
  non local Contribution for L=           1  read in
    real space projection operators read in
  non local Contribution for L=           1  read in
    real space projection operators read in
  non local Contribution for L=           2  read in
    real space projection operators read in
  non local Contribution for L=           2  read in
    real space projection operators read in
    PAW grid and wavefunctions read in
 
   number of l-projection  operators is LMAX  =           6
   number of lm-projection operators is LMMAX =          18
 
 POTCAR:    PAW_PBE Ta 17Jan2003                  
   VRHFIN =Ta:  6s5d                                                            
   LEXCH  = PE                                                                  
   EATOM  =   130.6506 eV,    9.6025 Ry                                         
                                                                                
   TITEL  = PAW_PBE Ta 17Jan2003                                                
   LULTRA =        F    use ultrasoft PP ?                                      
   IUNSCR =        1    unscreen: 0-lin 1-nonlin 2-no                           
   RPACOR =    2.330    partial core radius                                     
   POMASS =  180.948; ZVAL   =    5.000    mass and valenz                      
   RCORE  =    2.900    outmost cutoff radius                                   
   RWIGS  =    2.840; RWIGS  =    1.503    wigner-seitz radius (au A)           
   ENMAX  =  223.667; ENMIN  =  167.750 eV                                      
   RCLOC  =    2.205    cutoff for local pot                                    
   LCOR   =        T    correct aug charges                                     
   LPAW   =        T    paw PP                                                  
   EAUG   =  332.075                                                            
   DEXC   =    0.000                                                            
   RMAX   =    2.970    core radius for proj-oper                               
   RAUG   =    1.300    factor for augmentation sphere                          
   RDEP   =    3.060    radius for radial grids                                 
   RDEPT  =    2.354    core radius for aug-charge                              
                                                                                
   Atomic configuration                                                         
   16 entries                                                                   
     n  l   j            E        occ.                                          
     1  0  0.50    -67341.2807   2.0000                                         
     2  0  0.50    -11566.9376   2.0000                                         
     2  1  1.50    -10134.1182   6.0000                                         
     3  0  0.50     -2648.5620   2.0000                                         
     3  1  1.50     -2222.6012   6.0000                                         
     3  2  2.50     -1726.3120  10.0000                                         
     4  0  0.50      -538.6961   2.0000                                         
     4  1  1.50      -399.0129   6.0000                                         
     4  2  2.50      -220.3959  10.0000                                         
     4  3  3.50       -23.0374  14.0000                                         
     5  0  0.50       -71.2901   2.0000                                         
     5  1  1.50       -37.8225   6.0000                                         
     5  2  2.50        -2.6455   4.0000                                         
     6  0  0.50        -4.9623   1.0000                                         
     6  1  1.50        -1.3606   0.0000                                         
     5  3  2.50        -1.3606   0.0000                                         
   Description                                                                  
     l       E           TYP  RCUT    TYP  RCUT                                 
     2     -2.6455043     23  2.500                                             
     2     -0.6258895     23  2.500                                             
     0     -4.9622780     23  2.500                                             
     0      4.7531321     23  2.500                                             
     1     -1.3605826     23  2.900                                             
     1     27.2116520     23  2.900                                             
  local pseudopotential read in
  partial core-charges read in
  partial kinetic energy density read in
  atomic valenz-charges read in
  non local Contribution for L=           2  read in
    real space projection operators read in
  non local Contribution for L=           2  read in
    real space projection operators read in
  non local Contribution for L=           0  read in
    real space projection operators read in
  non local Contribution for L=           0  read in
    real space projection operators read in
  non local Contribution for L=           1  read in
    real space projection operators read in
  non local Contribution for L=           1  read in
    real space projection operators read in
    PAW grid and wavefunctions read in
 
   number of l-projection  operators is LMAX  =           6
   number of lm-projection operators is LMMAX =          18
 
 POTCAR:    PAW_PBE Ti 08Apr2002                  
   VRHFIN =Ti: d3 s1                                                            
   LEXCH  = PE                                                                  
   EATOM  =    94.7928 eV,    6.9671 Ry                                         
                                                                                
   TITEL  = PAW_PBE Ti 08Apr2002                                                
   LULTRA =        F    use ultrasoft PP ?                                      
   IUNSCR =        1    unscreen: 0-lin 1-nonlin 2-no                           
   RPACOR =    2.200    partial core radius                                     
   POMASS =   47.880; ZVAL   =    4.000    mass and valenz                      
   RCORE  =    2.800    outmost cutoff radius                                   
   RWIGS  =    2.500; RWIGS  =    1.323    wigner-seitz radius (au A)           
   ENMAX  =  178.330; ENMIN  =  133.747 eV                                      
   RCLOC  =    2.215    cutoff for local pot                                    
   LCOR   =        T    correct aug charges                                     
   LPAW   =        T    paw PP                                                  
   EAUG   =  328.883                                                            
   DEXC   =    0.000                                                            
   RMAX   =    2.868    core radius for proj-oper                               
   RAUG   =    1.300    factor for augmentation sphere                          
   RDEP   =    2.885    radius for radial grids                                 
   RDEPT  =    2.320    core radius for aug-charge                              
                                                                                
   Atomic configuration                                                         
    9 entries                                                                   
     n  l   j            E        occ.                                          
     1  0  0.50     -4865.3608   2.0000                                         
     2  0  0.50      -533.1367   2.0000                                         
     2  1  1.50      -440.5031   6.0000                                         
     3  0  0.50       -59.3186   2.0000                                         
     3  1  1.50       -35.7012   6.0000                                         
     3  2  2.50        -1.9157   3.0000                                         
     4  0  0.50        -3.7291   1.0000                                         
     4  1  1.50        -4.0817   0.0000                                         
     4  3  2.50        -1.3606   0.0000                                         
   Description                                                                  
     l       E           TYP  RCUT    TYP  RCUT                                 
     2     -1.9156924     23  2.800                                             
     2     -0.4062961     23  2.800                                             
     0     -3.7290832     23  2.800                                             
     0     20.4087390     23  2.800                                             
     1     -5.4423304     23  2.800                                             
  local pseudopotential read in
  partial core-charges read in
  partial kinetic energy density read in
  atomic valenz-charges read in
  non local Contribution for L=           2  read in
    real space projection operators read in
  non local Contribution for L=           2  read in
    real space projection operators read in
  non local Contribution for L=           0  read in
    real space projection operators read in
  non local Contribution for L=           0  read in
    real space projection operators read in
  non local Contribution for L=           1  read in
    real space projection operators read in
    PAW grid and wavefunctions read in
 
   number of l-projection  operators is LMAX  =           5
   number of lm-projection operators is LMMAX =          15
 
 POTCAR:   PAW_PBE Zr 08Apr2002                   
   VRHFIN =Zr: 5s4d5p                                                           
   LEXCH  = PE                                                                  
   EATOM  =    77.8472 eV,    5.7216 Ry                                         
                                                                                
   TITEL  = PAW_PBE Zr 08Apr2002                                                
   LULTRA =        F    use ultrasoft PP ?                                      
   IUNSCR =        1    unscreen: 0-lin 1-nonlin 2-no                           
   RPACOR =    2.200    partial core radius                                     
   POMASS =   91.224; ZVAL   =    4.000    mass and valenz                      
   RCORE  =    3.000    outmost cutoff radius                                   
   RWIGS  =    3.070; RWIGS  =    1.625    wigner-seitz radius (au A)           
   ENMAX  =  154.632; ENMIN  =  115.974 eV                                      
   RCLOC  =    2.213    cutoff for local pot                                    
   LCOR   =        T    correct aug charges                                     
   LPAW   =        T    paw PP                                                  
   EAUG   =  243.217                                                            
   DEXC   =    -.082                                                            
   RMAX   =    3.708    core radius for proj-oper                               
   RAUG   =    1.300    factor for augmentation sphere                          
   RDEP   =    3.146    radius for radial grids                                 
   QCUT   =   -3.371; QGAM   =    6.742    optimization parameters              
                                                                                
   Description                                                                  
     l     E      TYP  RCUT    TYP  RCUT                                        
     2   .000     23  3.000                                                     
     2   .000     23  3.000                                                     
     0   .000     23  3.000                                                     
     0  2.000     23  3.000                                                     
     1  -.400     23  3.000                                                     
     3   .000      7   .000                                                     
  local pseudopotential read in
  partial core-charges read in
  atomic valenz-charges read in
  non local Contribution for L=           2  read in
    real space projection operators read in
  non local Contribution for L=           2  read in
    real space projection operators read in
  non local Contribution for L=           0  read in
    real space projection operators read in
  non local Contribution for L=           0  read in
    real space projection operators read in
  non local Contribution for L=           1  read in
    real space projection operators read in
    PAW grid and wavefunctions read in
 
   number of l-projection  operators is LMAX  =           5
   number of lm-projection operators is LMMAX =          15
 
 POTCAR:    PAW_PBE O 08Apr2002                   
   VRHFIN =O: s2p4                                                              
   LEXCH  = PE                                                                  
   EATOM  =   432.3788 eV,   31.7789 Ry                                         
                                                                                
   TITEL  = PAW_PBE O 08Apr2002                                                 
   LULTRA =        F    use ultrasoft PP ?                                      
   IUNSCR =        1    unscreen: 0-lin 1-nonlin 2-no                           
   RPACOR =    1.200    partial core radius                                     
   POMASS =   16.000; ZVAL   =    6.000    mass and valenz                      
   RCORE  =    1.520    outmost cutoff radius                                   
   RWIGS  =    1.550; RWIGS  =    0.820    wigner-seitz radius (au A)           
   ENMAX  =  400.000; ENMIN  =  300.000 eV                                      
   ICORE  =        2    local potential                                         
   LCOR   =        T    correct aug charges                                     
   LPAW   =        T    paw PP                                                  
   EAUG   =  605.392                                                            
   DEXC   =    0.000                                                            
   RMAX   =    1.553    core radius for proj-oper                               
   RAUG   =    1.300    factor for augmentation sphere                          
   RDEP   =    1.550    radius for radial grids                                 
   RDEPT  =    1.329    core radius for aug-charge                              
                                                                                
   Atomic configuration                                                         
    4 entries                                                                   
     n  l   j            E        occ.                                          
     1  0  0.50      -514.6923   2.0000                                         
     2  0  0.50       -23.9615   2.0000                                         
     2  1  0.50        -9.0305   4.0000                                         
     3  2  1.50        -9.5241   0.0000                                         
   Description                                                                  
     l       E           TYP  RCUT    TYP  RCUT                                 
     0    -23.9615318     23  1.200                                             
     0     -9.5240782     23  1.200                                             
     1     -9.0304911     23  1.520                                             
     1      8.1634956     23  1.520                                             
     2     -9.5240782      7  1.500                                             
  local pseudopotential read in
  partial core-charges read in
  partial kinetic energy density read in
  kinetic energy density of atom read in
  atomic valenz-charges read in
  non local Contribution for L=           0  read in
    real space projection operators read in
  non local Contribution for L=           0  read in
    real space projection operators read in
  non local Contribution for L=           1  read in
    real space projection operators read in
  non local Contribution for L=           1  read in
    real space projection operators read in
    PAW grid and wavefunctions read in
 
   number of l-projection  operators is LMAX  =           4
   number of lm-projection operators is LMMAX =           8
 

 ----------------------------------------------------------------------------- 
|                                                                             |
|  ADVICE TO THIS USER RUNNING 'VASP/VAMP'   (HEAR YOUR MASTER'S VOICE ...):  |
|                                                                             |
|      You have a (more or less) 'large supercell' and for larger cells       |
|      it might be more efficient to use real space projection opertators     |
|      So try LREAL= Auto  in the INCAR   file.                               |
|      Mind: At the moment your POTCAR file does not contain real space       |
|       projectors, and has to be modified,  BUT if you                       |
|      want to do an extremely  accurate calculation you might also keep the  |
|      reciprocal projection scheme          (i.e. LREAL=.FALSE.)             |
|                                                                             |
 ----------------------------------------------------------------------------- 

 WARNING: PSMAXN for non-local potential too small
          PSMAXN should be >   12.5490833729506       NTYP=           5
  PAW_PBE Al 04Jan2001                  :
 energy of atom  1       EATOM=  -53.5387
 kinetic energy error for atom=    0.0002 (will be added to EATOM!!)
  PAW_PBE Nb_sv 25May2007               :
 energy of atom  2       EATOM=-1555.1913
 kinetic energy error for atom=    0.0037 (will be added to EATOM!!)
  PAW_PBE Ta 17Jan2003                  :
 energy of atom  3       EATOM= -130.6506
 kinetic energy error for atom=    0.0004 (will be added to EATOM!!)
  PAW_PBE Ti 08Apr2002                  :
 energy of atom  4       EATOM=  -94.7928
 kinetic energy error for atom=    0.0001 (will be added to EATOM!!)
 PAW_PBE Zr 08Apr2002                   :
 energy of atom  5       EATOM=  -77.8472
 kinetic energy error for atom=    0.0001 (will be added to EATOM!!)
  PAW_PBE O 08Apr2002                   :
 energy of atom  6       EATOM= -432.3788
 kinetic energy error for atom=    0.0168 (will be added to EATOM!!)
 
 
 POSCAR: Al Nb Ta Ti Zr                          
  positions in direct lattice
  velocities in cartesian coordinates
 exchange correlation table for  LEXCH =        8
   RHO(1)=    0.500       N(1)  =     2000
   RHO(2)=  100.500       N(2)  =     4000
 


--------------------------------------------------------------------------------------------------------


 ion  position               nearest neighbor table
   1  0.623  0.867  0.376-  34 2.83  25 2.88  24 2.88   9 2.88  13 2.90   4 2.91  61 2.93  15 3.16
                            41 3.35  17 3.40
   2  0.622  0.372  0.545-  86 1.94  31 2.72  23 2.81  33 2.83   7 2.83  62 2.86  10 2.86  26 2.92
                            16 3.01  17 3.27  42 3.29  18 3.31
   3  0.588  0.648  0.640-  75 1.77  78 1.82  79 1.82  86 1.86  85 2.08  32 2.74   8 2.79  26 2.85
                            23 2.88  45 2.99  33 3.13
   4  0.618  0.084  0.450-  31 2.80  24 2.86  34 2.87  13 2.88   1 2.91  25 2.92   7 2.92  62 3.05
                            10 3.09  28 3.16  46 3.24
   5  0.976  0.639  0.543-  88 1.92  82 2.07  30 2.76  63 2.80  42 2.86  47 2.93  52 2.94  27 2.97
                            56 3.11  57 3.13  59 3.42
   6  0.980  0.121  0.378-  29 2.80  28 2.80  53 2.91  41 2.96  51 3.05  55 3.05  60 3.08  57 3.37

   7  0.729  0.343  0.458-  28 2.77   2 2.83  29 2.83  31 2.85  17 2.89  11 2.90   4 2.92  63 3.07
                            62 3.17  42 3.24
   8  0.727  0.861  0.638-  78 2.03  71 2.05  77 2.10  79 2.17  27 2.72   3 2.79  12 2.92  32 2.93
                            18 3.01  30 3.05  64 3.20
   9  0.517  0.608  0.367-  35 2.84  15 2.85  17 2.87   1 2.88  11 2.89  61 2.95  43 3.10
  10  0.512  0.118  0.547-  16 2.64  12 2.77   2 2.86  18 2.93  36 2.96  44 3.02  62 3.06   4 3.09
                            46 3.09
  11  0.618  0.343  0.369-  24 2.75  34 2.83  31 2.87   9 2.89   7 2.90  61 2.96  43 3.27
  12  0.617  0.869  0.548-  85 2.48  23 2.74  10 2.77  62 2.90   8 2.92  13 2.95  32 2.99  25 3.02
                            33 3.05  30 3.09  44 3.25
  13  0.742  0.843  0.462-  30 2.64  17 2.87   4 2.88   1 2.90  28 2.94  12 2.95  63 2.98  41 3.05
                            57 3.27  62 3.47
  14  0.754  0.404  0.641-  76 2.02  74 2.03  79 2.26  42 2.81  27 2.91  58 2.96  64 3.03  18 3.03

  15  0.394  0.847  0.369-  22 2.68  19 2.76  25 2.83  34 2.84   9 2.85  39 2.98   1 3.16  46 3.43

  16  0.404  0.344  0.538-  84 2.14  87 2.25  10 2.64  31 2.68  33 2.78  26 2.79  21 2.87  20 2.89
                            37 2.92  40 2.93   2 3.01  46 3.25
  17  0.619  0.602  0.458-  33 2.80  25 2.81  31 2.85   9 2.87  13 2.87   7 2.89  61 2.95  35 3.03
                            23 3.15   2 3.27   1 3.40  63 3.44
  18  0.630  0.144  0.635-  72 2.03  74 2.04  71 2.05  32 2.69  62 2.93  10 2.93   8 3.01  26 3.02
                            14 3.03  36 3.19  64 3.23   2 3.31
  19  0.279  0.834  0.451-  15 2.76  35 2.94  46 2.96  44 2.97  39 2.97  25 2.99  60 3.07  51 3.08
                            47 3.12  56 3.20
  20  0.277  0.366  0.621-  70 2.04  69 2.11  67 2.16  87 2.20  84 2.23  16 2.89  36 2.92  26 2.96
                            21 3.00  59 3.03  40 3.07  48 3.14  52 3.18  45 3.37
  21  0.277  0.581  0.542-  84 2.10  80 2.12  87 2.13  82 2.14  16 2.87  37 3.00  20 3.00  33 3.02
                            35 3.03  59 3.04  44 3.07  47 3.09  56 3.13  52 3.15  45 3.41
  22  0.283  0.077  0.361-  15 2.68  46 2.97  43 2.97  34 2.99  51 3.02  55 3.10  60 3.10
  23  0.720  0.626  0.560-  79 2.13  86 2.19  12 2.74  30 2.76   2 2.81   3 2.88  27 2.94  42 2.95
                            33 3.15  17 3.15  63 3.49
  24  0.740  0.115  0.366-  29 2.73  11 2.75  28 2.85   4 2.86   1 2.88  41 3.00
  25  0.496  0.836  0.458-  35 2.78  17 2.81  15 2.83   1 2.88  44 2.90   4 2.92  19 2.99  46 2.99
                            12 3.02  33 3.14
  26  0.491  0.386  0.628-  70 1.94  74 1.97  75 2.13  87 2.17  86 2.19  16 2.79  36 2.84   3 2.85
                             2 2.92  20 2.96  18 3.02  45 3.30
  27  0.867  0.661  0.636-  76 2.00  79 2.04  68 2.05  77 2.07   8 2.72  58 2.75  14 2.91  23 2.94
                             5 2.97  54 3.01  30 3.15  42 3.41
  28  0.847  0.110  0.455-   7 2.77   6 2.80  24 2.85  57 2.90  62 2.90  13 2.94  53 2.98  29 3.15
                             4 3.16  50 3.17  41 3.36
  29  0.852  0.349  0.376-  24 2.73   6 2.80   7 2.83  53 2.94  61 2.98  49 3.07  28 3.15  63 3.25

  30  0.840  0.852  0.544-  83 2.01  88 2.19  13 2.64   5 2.76  23 2.76  57 2.90  62 2.96   8 3.05
                            12 3.09  50 3.12  27 3.15  63 3.46
  31  0.522  0.339  0.461-  16 2.68   2 2.72   4 2.80  17 2.85   7 2.85  35 2.86  11 2.87  46 2.95
                            43 3.11
  32  0.517  0.915  0.643-  78 1.93  72 1.94  85 2.06  65 2.06  36 2.55  18 2.69   3 2.74   8 2.93
                            12 2.99  45 3.01  44 3.33
  33  0.496  0.604  0.538-  86 2.06  85 2.15  87 2.31  35 2.74  16 2.78  17 2.80   2 2.83  44 2.96
                            21 3.02  12 3.05   3 3.13  25 3.14  23 3.15
  34  0.499  0.102  0.365-  11 2.83   1 2.83  15 2.84   4 2.87  43 2.91  46 2.98  22 2.99
  35  0.400  0.580  0.451-  33 2.74  25 2.78   9 2.84  31 2.86  37 2.88  39 2.93  19 2.94  21 3.03
                            17 3.03  43 3.08
  36  0.400  0.122  0.639-  70 2.00  72 2.01  67 2.05  65 2.20  32 2.55  26 2.84  20 2.92  38 2.94
                            10 2.96  18 3.19  40 3.22
  37  0.255  0.366  0.464-  84 2.16  35 2.88  16 2.92  21 3.00  47 3.02  60 3.04  43 3.05  55 3.08
                            46 3.08  40 3.24  52 3.28  39 3.39
  38  0.232  0.931  0.636-  73 1.95  65 2.05  67 2.08  80 2.20  56 2.85  54 2.88  48 2.94  36 2.94
                            40 3.10  45 3.12  59 3.15  44 3.30
  39  0.252  0.614  0.376-  35 2.93  19 2.97  15 2.98  47 3.07  43 3.07  51 3.07  55 3.08  37 3.39
                            49 3.53
  40  0.254  0.129  0.548-  84 2.26  67 2.41  16 2.93  56 3.05  20 3.07  44 3.07  60 3.08  38 3.10
                            46 3.12  36 3.22  37 3.24  52 3.29  48 3.29  50 3.62
  41  0.865  0.859  0.370-   6 2.96  24 3.00  61 3.05  13 3.05  57 3.06  49 3.12   1 3.35  28 3.36
                            51 3.49  63 3.53
  42  0.860  0.393  0.554-  81 2.29  14 2.81   5 2.86  23 2.95  62 3.14  58 3.16  52 3.24   7 3.24
                            63 3.26   2 3.29  27 3.41  50 3.42  53 3.45  64 3.59
  43  0.381  0.352  0.373-  34 2.91  22 2.97  37 3.05  39 3.07  35 3.08   9 3.10  31 3.11  55 3.26
                            11 3.27  46 3.29
  44  0.381  0.865  0.545-  80 2.33  85 2.33  25 2.90  33 2.96  19 2.97  10 3.02  21 3.07  40 3.07
                            56 3.22  12 3.25  38 3.30  32 3.33  46 3.36  45 3.41
  45  0.373  0.679  0.650-  75 2.04  69 2.05  65 2.17  80 2.20  87 2.23  85 2.29   3 2.99  32 3.01
                            38 3.12  59 3.16  26 3.30  20 3.37  21 3.41  44 3.41
  46  0.384  0.104  0.456-  31 2.95  19 2.96  22 2.97  34 2.98  25 2.99  37 3.08  10 3.09  40 3.12
                             4 3.24  16 3.25  60 3.27  43 3.29  44 3.36  15 3.43
  47  0.117  0.611  0.465-  82 2.33   5 2.93  37 3.02  39 3.07  21 3.09  19 3.12  53 3.14  49 3.15
                            57 3.17  56 3.23  52 3.25  63 3.42  51 3.52  55 3.80
  48  0.098  0.169  0.637-  66 2.12  67 2.13  81 2.26  38 2.94  58 3.02  54 3.03  50 3.06  20 3.14
                            52 3.14  64 3.26  40 3.29
  49  0.996  0.593  0.368-  63 3.05  29 3.07  41 3.12  47 3.15  51 3.16  55 3.23  53 3.44  39 3.53
                            61 3.65  57 3.82
  50  0.993  0.094  0.543-  83 2.14  81 2.19  88 2.71  57 3.00  48 3.06  30 3.12  52 3.12  56 3.16
                            28 3.17  60 3.33  53 3.37  64 3.39  42 3.42  62 3.57  54 3.61  40 3.62
  51  0.119  0.872  0.375-  60 3.00  22 3.02   6 3.05  39 3.07  19 3.08  57 3.16  49 3.16  41 3.49
                            47 3.52
  52  0.095  0.385  0.551-  84 2.16  81 2.19  82 2.28   5 2.94  53 3.06  50 3.12  48 3.14  21 3.15
                            20 3.18  42 3.24  47 3.25  59 3.27  37 3.28  40 3.29  58 3.36
  53  1.000  0.331  0.453-   6 2.91  29 2.94  28 2.98  60 3.06  52 3.06  63 3.08  55 3.09  47 3.14
                            50 3.37  49 3.44  42 3.45
  54  0.029  0.870  0.647-  77 2.14  73 2.17  88 2.21  68 2.23  38 2.88  59 2.92  27 3.01  48 3.03
                            56 3.24  64 3.37  50 3.61
  55  0.145  0.332  0.368-   6 3.05  37 3.08  39 3.08  53 3.09  22 3.10  49 3.23  60 3.24  43 3.26
                            47 3.80
  56  0.148  0.849  0.546-  82 2.23  88 2.32  80 2.38  38 2.85  40 3.05   5 3.11  21 3.13  50 3.16
                            59 3.19  19 3.20  44 3.22  47 3.23  57 3.23  54 3.24  60 3.51
  57  0.979  0.876  0.465-  28 2.90  30 2.90  50 3.00  41 3.06  63 3.11   5 3.13  60 3.13  51 3.16
                            47 3.17  56 3.23  13 3.27   6 3.37  49 3.82
  58  0.968  0.418  0.654-  76 2.07  66 2.12  68 2.22  81 2.22  27 2.75  14 2.96  48 3.02  64 3.11
                            42 3.16  59 3.26  52 3.36
  59  0.150  0.624  0.631-  69 2.11  68 2.12  73 2.18  80 2.27  82 2.30  54 2.92  20 3.03  21 3.04
                            38 3.15  45 3.16  56 3.19  58 3.26  52 3.27   5 3.42
  60  0.147  0.092  0.451-  51 3.00  37 3.04  53 3.06  19 3.07   6 3.08  40 3.08  22 3.10  57 3.13
                            55 3.24  46 3.27  50 3.33  56 3.51
  61  0.731  0.606  0.367-   1 2.93  17 2.95   9 2.95  11 2.96  29 2.98  41 3.05  63 3.17  49 3.65

  62  0.734  0.121  0.543-  83 2.12   2 2.86  28 2.90  12 2.90  18 2.93  30 2.96   4 3.05  10 3.06
                            42 3.14   7 3.17  64 3.38  13 3.47  50 3.57
  63  0.869  0.592  0.458-   5 2.80  13 2.98  49 3.05   7 3.07  53 3.08  57 3.11  61 3.17  29 3.25
                            42 3.26  47 3.42  17 3.44  30 3.46  23 3.49  41 3.53
  64  0.864  0.130  0.647-  71 2.11  83 2.12  66 2.15  77 2.52  81 2.60  14 3.03  58 3.11   8 3.20
                            18 3.23  48 3.26  54 3.37  62 3.38  50 3.39  42 3.59
  65  0.372  0.904  0.660-  38 2.05  32 2.06  45 2.17  36 2.20
  66  0.984  0.218  0.686-  48 2.12  58 2.12  64 2.15
  67  0.252  0.147  0.634-  36 2.05  38 2.08  48 2.13  20 2.16  40 2.41
  68  0.008  0.642  0.659-  27 2.05  59 2.12  58 2.22  54 2.23
  69  0.268  0.537  0.669-  45 2.05  59 2.11  20 2.11
  70  0.387  0.312  0.667-  26 1.94  36 2.00  20 2.04
  71  0.735  0.046  0.676-   8 2.05  18 2.05  64 2.11
  72  0.519  0.089  0.679-  32 1.94  36 2.01  18 2.03
  73  0.165  0.803  0.679-  38 1.95  54 2.17  59 2.18
  74  0.617  0.345  0.659-  26 1.97  14 2.03  18 2.04
  75  0.492  0.569  0.673-   3 1.77  45 2.04  26 2.13
  76  0.846  0.510  0.685-  27 2.00  14 2.02  58 2.07
  77  0.875  0.869  0.656-  27 2.07   8 2.10  54 2.14  64 2.52
  78  0.609  0.802  0.678-   3 1.82  32 1.93   8 2.03
  79  0.720  0.635  0.637-   3 1.82  27 2.04  23 2.13   8 2.17  14 2.26
  80  0.271  0.744  0.594-  21 2.12  38 2.20  45 2.20  59 2.27  44 2.33  56 2.38
  81  0.981  0.274  0.592-  50 2.19  52 2.19  58 2.22  48 2.26  42 2.29  64 2.60
  82  0.124  0.619  0.549-   5 2.07  21 2.14  56 2.23  52 2.28  59 2.30  47 2.33
  83  0.859  0.037  0.577-  30 2.01  64 2.12  62 2.12  50 2.14
  84  0.250  0.365  0.542-  21 2.10  16 2.14  52 2.16  37 2.16  20 2.23  40 2.26
  85  0.489  0.752  0.597-  32 2.06   3 2.08  33 2.15  45 2.29  44 2.33  12 2.48
  86  0.590  0.524  0.589-   3 1.86   2 1.94  33 2.06  23 2.19  26 2.19
  87  0.384  0.517  0.593-  21 2.13  26 2.17  20 2.20  45 2.23  16 2.25  33 2.31
  88  0.988  0.822  0.571-   5 1.92  30 2.19  54 2.21  56 2.32  50 2.71
 
  LATTYP: Found a simple orthorhombic cell.
 ALAT       =     9.5644817352
 B/A-ratio  =     1.4398428730
 C/A-ratio  =     2.8922184390
  
  Lattice vectors:
  
 A1 = (   0.0000000000,  -9.5644817352,   0.0000000000)
 A2 = ( -13.7713508606,   0.0000000000,   0.0000000000)
 A3 = (   0.0000000000,   0.0000000000, -27.6625704340)


Analysis of symmetry for initial positions (statically):
=====================================================================
 Subroutine PRICEL returns:
 Original cell was already a primitive cell.
 

 Routine SETGRP: Setting up the symmetry group for a 
 simple orthorhombic supercell.


 Subroutine GETGRP returns: Found  1 space group operations
 (whereof  1 operations were pure point group operations)
 out of a pool of  8 trial point group operations.


The static configuration has the point symmetry C_1 .


Analysis of symmetry for dynamics (positions and initial velocities):
=====================================================================
 Subroutine PRICEL returns:
 Original cell was already a primitive cell.
 

 Routine SETGRP: Setting up the symmetry group for a 
 simple orthorhombic supercell.


 Subroutine GETGRP returns: Found  1 space group operations
 (whereof  1 operations were pure point group operations)
 out of a pool of  8 trial point group operations.


The dynamic configuration has the point symmetry C_1 .


Analysis of constrained symmetry for selective dynamics:
=====================================================================
 Subroutine PRICEL returns:
 Original cell was already a primitive cell.
 

 Routine SETGRP: Setting up the symmetry group for a 
 simple orthorhombic supercell.


 Subroutine GETGRP returns: Found  1 space group operations
 (whereof  1 operations were pure point group operations)
 out of a pool of  8 trial point group operations.


The constrained configuration has the point symmetry C_1 .


 Subroutine INISYM returns: Found  1 space group operations
 (whereof  1 operations are pure point group operations),
 and found     1 'primitive' translations

 
 
 KPOINTS: k-points                                

Automatic generation of k-mesh.
Space group operators:
 irot       det(A)        alpha          n_x          n_y          n_z        tau_x        tau_y        tau_z
    1     1.000000     0.000000     1.000000     0.000000     0.000000     0.000000     0.000000     0.000000
 
 Subroutine IBZKPT returns following result:
 ===========================================
 
 Found      5 irreducible k-points:
 
 Following reciprocal coordinates:
            Coordinates               Weight
  0.000000  0.000000  0.000000      1.000000
  0.333333  0.000000  0.000000      2.000000
  0.000000  0.333333  0.000000      2.000000
  0.333333  0.333333  0.000000      2.000000
 -0.333333  0.333333  0.000000      2.000000
 
 Following cartesian coordinates:
            Coordinates               Weight
  0.000000  0.000000  0.000000      1.000000
  0.024205  0.000000  0.000000      2.000000
  0.000000  0.034851  0.000000      2.000000
  0.024205  0.034851  0.000000      2.000000
 -0.024205  0.034851  0.000000      2.000000
 


--------------------------------------------------------------------------------------------------------




 Dimension of arrays:
   k-points           NKPTS =      5   k-points in BZ     NKDIM =      5   number of bands    NBANDS=    292
   number of dos      NEDOS =    301   number of ions     NIONS =     88
   non local maximal  LDIM  =      6   non local SUM 2l+1 LMDIM =     18
   total plane-waves  NPLWV = 846720
   max r-space proj   IRMAX =      1   max aug-charges    IRDMAX=  25433
   dimension x,y,z NGX =    84 NGY =   60 NGZ =  168
   dimension x,y,z NGXF=   168 NGYF=  120 NGZF=  336
   support grid    NGXF=   168 NGYF=  120 NGZF=  336
   ions per type =               6  10   4  18  26  24
 NGX,Y,Z   is equivalent  to a cutoff of  10.14, 10.43, 10.10 a.u.
 NGXF,Y,Z  is equivalent  to a cutoff of  20.28, 20.86, 20.19 a.u.


 I would recommend the setting:
   dimension x,y,z NGX =    83 NGY =   57 NGZ =  166
 SYSTEM =  (110) surface                           
 POSCAR =  Al Nb Ta Ti Zr                          

 Startparameter for this run:
   NWRITE =      2    write-flag & timer
   PREC   = normal    normal or accurate (medium, high low for compatibility)
   ISTART =      0    job   : 0-new  1-cont  2-samecut
   ICHARG =      2    charge: 1-file 2-atom 10-const
   ISPIN  =      1    spin polarized calculation?
   LNONCOLLINEAR =      F non collinear calculations
   LSORBIT =      F    spin-orbit coupling
   INIWAV =      1    electr: 0-lowe 1-rand  2-diag
   LASPH  =      F    aspherical Exc in radial PAW
   METAGGA=      F    non-selfconsistent MetaGGA calc.

 Electronic Relaxation 1
   ENCUT  =  600.0 eV  44.10 Ry    6.64 a.u.  27.50 19.10 55.25*2*pi/ulx,y,z
   ENINI  =  600.0     initial cutoff
   ENAUG  =  605.4 eV  augmentation charge cutoff
   NELM   =     60;   NELMIN=  2; NELMDL= -5     # of ELM steps 
   EDIFF  = 0.1E-03   stopping-criterion for ELM
   LREAL  =      F    real-space projection
   NLSPLINE    = F    spline interpolate recip. space projectors
   LCOMPAT=      F    compatible to vasp.4.4
   GGA_COMPAT  = T    GGA compatible to vasp.4.4-vasp.4.6
   LMAXPAW     = -100 max onsite density
   LMAXMIX     =    2 max onsite mixed and CHGCAR
   VOSKOWN=      0    Vosko Wilk Nusair interpolation
   ROPT   =    0.00000   0.00000   0.00000   0.00000
   ROPT   =    0.00000   0.00000
 Ionic relaxation
   EDIFFG = 0.1E-02   stopping-criterion for IOM
   NSW    =      0    number of steps for IOM
   NBLOCK =      1;   KBLOCK =      1    inner block; outer block 
   IBRION =     -1    ionic relax: 0-MD 1-quasi-New 2-CG
   NFREE  =      0    steps in history (QN), initial steepest desc. (CG)
   ISIF   =      2    stress and relaxation
   IWAVPR =     10    prediction:  0-non 1-charg 2-wave 3-comb
   ISYM   =      2    0-nonsym 1-usesym 2-fastsym
   LCORR  =      T    Harris-Foulkes like correction to forces

   POTIM  = 0.1000    time-step for ionic-motion
   TEIN   =    0.0    initial temperature
   TEBEG  =    0.0;   TEEND  =   0.0 temperature during run
   SMASS  =  -3.00    Nose mass-parameter (am)
   estimated Nose-frequenzy (Omega)   =  0.10E-29 period in steps =****** mass=  -0.433E-26a.u.
   SCALEE = 1.0000    scale energy and forces
   NPACO  =    256;   APACO  = 16.0  distance and # of slots for P.C.
   PSTRESS=    0.0 pullay stress

  Mass of Ions in am
   POMASS =  26.98 92.91180.95 47.88 91.22 16.00
  Ionic Valenz
   ZVAL   =   3.00 13.00  5.00  4.00  4.00  6.00
  Atomic Wigner-Seitz radii
   RWIGS  =  -1.00 -1.00 -1.00 -1.00 -1.00 -1.00
  virtual crystal weights 
   VCA    =   1.00  1.00  1.00  1.00  1.00  1.00
   NELECT =     488.0000    total number of electrons
   NUPDOWN=      -1.0000    fix difference up-down

 DOS related values:
   EMIN   =  10.00;   EMAX   =-10.00  energy-range for DOS
   EFERMI =   0.00
   ISMEAR =     2;   SIGMA  =   0.10  broadening in eV -4-tet -1-fermi 0-gaus

 Electronic relaxation 2 (details)
   IALGO  =     68    algorithm
   LDIAG  =      T    sub-space diagonalisation (order eigenvalues)
   LSUBROT=      F    optimize rotation matrix (better conditioning)
   TURBO    =      0    0=normal 1=particle mesh
   IRESTART =      0    0=no restart 2=restart with 2 vectors
   NREBOOT  =      0    no. of reboots
   NMIN     =      0    reboot dimension
   EREF     =   0.00    reference energy to select bands
   IMIX   =      4    mixing-type and parameters
     AMIX     =   0.40;   BMIX     =  1.00
     AMIX_MAG =   1.60;   BMIX_MAG =  1.00
     AMIN     =   0.10
     WC   =   100.;   INIMIX=   1;  MIXPRE=   1;  MAXMIX= -45

 Intra band minimization:
   WEIMIN = 0.0000     energy-eigenvalue tresh-hold
   EBREAK =  0.86E-07  absolut break condition
   DEPER  =   0.30     relativ break condition  

   TIME   =   0.40     timestep for ELM

  volume/ion in A,a.u.               =      41.40       279.41
  Fermi-wavevector in a.u.,A,eV,Ry     =   0.837602  1.582839  9.545546  0.701578
  Thomas-Fermi vector in A             =   1.951519
 
 Write flags
   LWAVE  =      F    write WAVECAR
   LCHARG =      T    write CHGCAR
   LVTOT  =      F    write LOCPOT, total local potential
   LVHAR  =      F    write LOCPOT, Hartree potential only
   LELF   =      F    write electronic localiz. function (ELF)
   LORBIT =      0    0 simple, 1 ext, 2 COOP (PROOUT)


 Dipole corrections
   LMONO  =      F    monopole corrections only (constant potential shift)
   LDIPOL =      F    correct potential (dipole corrections)
   IDIPOL =      0    1-x, 2-y, 3-z, 4-all directions 
   EPSILON=  1.0000000 bulk dielectric constant

 Exchange correlation treatment:
   GGA     =    --    GGA type
   LEXCH   =     8    internal setting for exchange type
   VOSKOWN=      0    Vosko Wilk Nusair interpolation
   LHFCALC =     F    Hartree Fock is set to
   LHFONE  =     F    Hartree Fock one center treatment
   AEXX    =    0.0000 exact exchange contribution

 Linear response parameters
   LEPSILON=     F    determine dielectric tensor
   LRPA    =     F    only Hartree local field effects (RPA)
   LNABLA  =     F    use nabla operator in PAW spheres
   LVEL    =     F    velocity operator in full k-point grid
   LINTERFAST=   F  fast interpolation
   KINTER  =     0    interpolate to denser k-point grid
   CSHIFT  =0.1000    complex shift for real part using Kramers Kronig
   OMEGAMAX=  -1.0    maximum frequency
   DEG_THRESHOLD= 0.2000000E-02 threshold for treating states as degnerate
   RTIME   =    0.100 relaxation time in fs

 Orbital magnetization related:
   ORBITALMAG=     F  switch on orbital magnetization
   LCHIMAG   =     F  perturbation theory with respect to B field
   DQ        =  0.001000  dq finite difference perturbation B field



--------------------------------------------------------------------------------------------------------


 Static calculation
 charge density and potential will be updated during run
 non-spin polarized calculation
 RMM-DIIS sequential band-by-band and
  variant of blocked Davidson during initial phase
 perform sub-space diagonalisation
    before iterative eigenvector-optimisation
 modified Broyden-mixing scheme, WC =      100.0
 initial mixing is a Kerker type mixing with AMIX =  0.4000 and BMIX =      1.0000
 Hartree-type preconditioning will be used
 using additional bands           48
 reciprocal scheme for non local part
 use partial core corrections
 calculate Harris-corrections to forces 
   (improved forces if not selfconsistent)
 use gradient corrections 
 use of overlap-Matrix (Vanderbilt PP)
 Methfessel and Paxton  Order N= 2 SIGMA  =   0.10


--------------------------------------------------------------------------------------------------------


  energy-cutoff  :      600.00
  volume of cell :     3643.60
      direct lattice vectors                 reciprocal lattice vectors
    13.771350861  0.000000000  0.000000000     0.072614518  0.000000000  0.000000000
     0.000000000  9.564481735  0.000000000     0.000000000  0.104553496  0.000000000
     0.000000000  0.000000000 27.662570434     0.000000000  0.000000000  0.036149931

  length of vectors
    13.771350861  9.564481735 27.662570434     0.072614518  0.104553496  0.036149931


 
 k-points in units of 2pi/SCALE and weight: k-points                                
   0.00000000  0.00000000  0.00000000       0.111
   0.02420484  0.00000000  0.00000000       0.222
   0.00000000  0.03485117  0.00000000       0.222
   0.02420484  0.03485117  0.00000000       0.222
  -0.02420484  0.03485117  0.00000000       0.222
 
 k-points in reciprocal lattice and weights: k-points                                
   0.00000000  0.00000000  0.00000000       0.111
   0.33333333  0.00000000  0.00000000       0.222
   0.00000000  0.33333333  0.00000000       0.222
   0.33333333  0.33333333  0.00000000       0.222
  -0.33333333  0.33333333  0.00000000       0.222
 
 position of ions in fractional coordinates (direct lattice) 
   0.62276447  0.86746430  0.37590333
   0.62195919  0.37194919  0.54513213
   0.58828295  0.64773683  0.64038728
   0.61839700  0.08363760  0.44965952
   0.97555403  0.63923852  0.54314583
   0.97963780  0.12056648  0.37767599
   0.72857308  0.34338307  0.45816820
   0.72668816  0.86136765  0.63845839
   0.51739597  0.60805875  0.36719826
   0.51230211  0.11760984  0.54725412
   0.61811078  0.34297293  0.36889183
   0.61670699  0.86947816  0.54808511
   0.74231148  0.84345710  0.46199300
   0.75446614  0.40435941  0.64108431
   0.39405298  0.84738672  0.36896032
   0.40440048  0.34420109  0.53830415
   0.61928761  0.60162497  0.45752798
   0.63038785  0.14371016  0.63489068
   0.27944195  0.83362269  0.45088327
   0.27741790  0.36648667  0.62133319
   0.27715363  0.58097092  0.54198296
   0.28324246  0.07725573  0.36149931
   0.71966496  0.62624249  0.55957919
   0.74002355  0.11549973  0.36646499
   0.49591756  0.83582580  0.45790018
   0.49121350  0.38641460  0.62820925
   0.86695277  0.66093190  0.63561167
   0.84724605  0.11017048  0.45460239
   0.85243583  0.34907103  0.37639265
   0.84032142  0.85183812  0.54391413
   0.52175105  0.33942658  0.46105252
   0.51713803  0.91548406  0.64271220
   0.49569415  0.60388900  0.53800795
   0.49943882  0.10200214  0.36464270
   0.40016663  0.58028412  0.45130253
   0.39971697  0.12169355  0.63856611
   0.25505811  0.36595738  0.46399110
   0.23245228  0.93094361  0.63557286
   0.25182599  0.61397660  0.37627308
   0.25410334  0.12904795  0.54769948
   0.86539888  0.85904646  0.37036829
   0.85961887  0.39332776  0.55397526
   0.38059813  0.35186696  0.37331264
   0.38083815  0.86455420  0.54497871
   0.37329734  0.67947368  0.65042055
   0.38408008  0.10357511  0.45579618
   0.11657381  0.61110574  0.46457054
   0.09805779  0.16942539  0.63690031
   0.99629861  0.59295863  0.36811234
   0.99284327  0.09363575  0.54316118
   0.11869311  0.87196302  0.37467704
   0.09459868  0.38469170  0.55137102
   0.99977952  0.33051389  0.45306987
   0.02892629  0.87018011  0.64659333
   0.14482272  0.33176249  0.36788561
   0.14761728  0.84926322  0.54586626
   0.97888047  0.87608504  0.46520830
   0.96753999  0.41832652  0.65434762
   0.15044529  0.62374853  0.63092899
   0.14721048  0.09173214  0.45072276
   0.73135245  0.60578495  0.36679988
   0.73413675  0.12071679  0.54291370
   0.86923259  0.59196168  0.45825814
   0.86379950  0.13042307  0.64657448
   0.37195487  0.90421649  0.65994412
   0.98440072  0.21785093  0.68552652
   0.25185606  0.14650726  0.63443087
   0.00779126  0.64230879  0.65896764
   0.26833921  0.53743178  0.66949734
   0.38659105  0.31245695  0.66730418
   0.73502725  0.04609794  0.67562608
   0.51870924  0.08861961  0.67896130
   0.16450300  0.80305656  0.67883520
   0.61749309  0.34457581  0.65857100
   0.49183022  0.56877944  0.67260581
   0.84560463  0.51031749  0.68479295
   0.87481544  0.86905511  0.65616336
   0.60892639  0.80191652  0.67755568
   0.72022371  0.63471198  0.63670049
   0.27128342  0.74429720  0.59362073
   0.98145435  0.27372138  0.59199279
   0.12441669  0.61860457  0.54867083
   0.85907534  0.03688793  0.57717390
   0.24951458  0.36513837  0.54193693
   0.48929183  0.75157278  0.59666897
   0.59010256  0.52448837  0.58858551
   0.38419409  0.51701760  0.59275625
   0.98840778  0.82170755  0.57121849
 
 position of ions in cartesian coordinates  (Angst):
   8.57630799  8.29684649 10.39845223
   8.56521820  3.55750121 15.07975590
   8.10145095  6.19526711 17.71475832
   8.51616202  0.79995025 12.43873821
  13.43469681  6.11398517 15.02480984
  13.49093588  1.15315590 10.44748880
  10.03343557  3.28428114 12.67411000
  10.00747759  8.23853519 17.66140012
   7.12524148  5.81576681 10.15764776
   7.05509215  1.12487712 15.13845564
   8.51222037  3.28035836 10.20449636
   8.49288828  8.31610799 15.16144288
  10.22263181  8.06723005 12.77991378
  10.39001791  3.86748822 17.73404000
   5.42664188  8.10481479 10.20639088
   5.56914096  3.29210508 14.89087657
   8.52842696  5.75423100 12.65640004
   8.68129224  1.37451321 17.56270826
   3.84829318  7.97316903 12.47259035
   3.82041918  3.50525502 17.18767317
   3.81677993  5.55668576 14.99264170
   3.90063135  0.73891098 10.00000000
   9.91075866  5.98968488 15.47939880
  10.19112400  1.10469510 10.13736353
   6.82945470  7.99424061 12.66669595
   6.76467351  3.69585537 17.37788249
  11.93911083  6.32147110 17.58265272
  11.66772263  1.05372358 12.57547056
  11.73919286  3.33868345 10.41198829
  11.57236107  8.14739013 15.04606296
   7.18521672  3.24643930 12.75389771
   7.12168927  8.75613058 17.77907163
   6.82637811  5.77588535 14.88268292
   6.87794726  0.97559764 10.08695433
   5.51083508  5.55011685 12.48418803
   5.50464264  1.16393574 17.66437990
   3.51249472  3.50019267 12.83518635
   3.20118195  8.90399315 17.58157888
   3.46798404  5.87236796 10.40868071
   3.49934632  1.23427678 15.15077542
  11.91771166  8.21633417 10.24533883
  11.83811300  3.76197620 15.32437972
   5.24135036  3.36542512 10.32678719
   5.24465576  8.26901284 15.07551202
   5.14080862  6.49881360 17.99230428
   5.28930157  0.99064225 12.60849381
   1.60537885  5.84490969 12.85121538
   1.35038826  1.62046607 17.61829973
  13.72037774  5.67134198 10.18293350
  13.67279307  0.89557742 15.02523450
   1.63456451  8.33987442 10.36453009
   1.30275155  3.67937675 15.25233967
  13.76831459  3.16119411 12.53307716
   0.39835402  8.32282172 17.88643355
   1.99440444  3.17313630 10.17666150
   2.03288931  8.12276254 15.10006380
  13.48050634  8.37929939 12.86885734
  13.32433273  4.00107638 18.10093703
   2.07183492  5.96583143 17.45311767
   2.02728715  0.87737042 12.46815015
  10.07171117  5.79401911 10.14662739
  10.11005482  1.15459356 15.01838839
  11.97050705  5.66180669 12.67659812
  11.89568602  1.24742906 17.88591200
   5.12232102  8.64836206 18.25575072
  13.55652777  2.08363128 18.96342554
   3.46839816  1.40126599 17.54998861
   0.10729616  6.14335069 18.22873870
   3.69539338  5.14025642 18.52001726
   5.32388102  2.98848877 18.45934899
  10.12231815  0.44090294 18.68955412
   7.14332693  0.84760065 18.78181468
   2.26542860  7.68081980 18.77832658
   8.50371399  3.29568900 18.21776664
   6.77316646  5.44008058 18.60600557
  11.64511803  4.88092235 18.94313335
  12.04739034  8.31206171 18.15116529
   8.38573892  7.66991587 18.74293171
   9.91845335  6.07069116 17.61277216
   3.73593911  7.11881695 16.42107532
  13.51595220  2.61800316 16.37604215
   1.71338587  5.91663209 15.17764560
  11.83062788  0.35281397 15.96611361
   3.43615283  3.49235928 14.99136841
   6.73820948  7.18840409 16.50539738
   8.12650936  5.01645946 16.28178817
   5.29087163  4.94500539 16.39716142
  13.61171037  7.85920681 15.80137169
 


--------------------------------------------------------------------------------------------------------


 k-point  1 :   0.0000 0.0000 0.0000  plane waves:  121663
 k-point  2 :   0.3333 0.0000 0.0000  plane waves:  121577
 k-point  3 :   0.0000 0.3333 0.0000  plane waves:  121622
 k-point  4 :   0.3333 0.3333 0.0000  plane waves:  121647
 k-point  5 :  -0.3333 0.3333 0.0000  plane waves:  121647

 maximum and minimum number of plane-waves per node :      5107     5041

 maximum number of plane-waves:    121663
 maximum index in each direction: 
   IXMAX=   27   IYMAX=   19   IZMAX=   55
   IXMIN=  -27   IYMIN=  -19   IZMIN=  -55

 WARNING: aliasing errors must be expected set NGX to 110 to avoid them
 WARNING: aliasing errors must be expected set NGY to  78 to avoid them
 WARNING: aliasing errors must be expected set NGZ to 222 to avoid them
 aliasing errors are usually negligible using standard VASP settings
 and one can safely disregard these warnings

 parallel 3D FFT for wavefunctions:
    minimum data exchange during FFTs selected (reduces bandwidth)
 parallel 3D FFT for charge:
    minimum data exchange during FFTs selected (reduces bandwidth)


 total amount of memory used by VASP on root node   141437. kBytes
========================================================================

   base      :      30000. kBytes
   nonl-proj :      29063. kBytes
   fftplans  :       6516. kBytes
   grid      :      15878. kBytes
   one-center:         62. kBytes
   wavefun   :      59918. kBytes
 
     INWAV:  cpu time    0.0000: real time    0.0000
 Broyden mixing: mesh for mixing (old mesh)
   NGX = 55   NGY = 39   NGZ =111
  (NGX  =168   NGY  =120   NGZ  =336)
  gives a total of 238095 points

 initial charge density was supplied:
 charge density of overlapping atoms calculated
 number of electron     488.0000000 magnetization 
 keeping initial charge density in first step


--------------------------------------------------------------------------------------------------------


 Maximum index for augmentation-charges         1033 (set IRDMAX)


--------------------------------------------------------------------------------------------------------


 First call to EWALD:  gamma=   0.115
 Maximum number of real-space cells 3x 4x 2
 Maximum number of reciprocal cells 3x 2x 5

 FEWALD executed in parallel
    FEWALD:  cpu time    0.0031: real time    0.0031


----------------------------------------- Iteration    1(   1)  ---------------------------------------


    POTLOK:  cpu time    0.1075: real time    0.1076
    SETDIJ:  cpu time    0.0158: real time    0.0161
     EDDAV:  cpu time   23.2170: real time   23.2252
       DOS:  cpu time    0.0019: real time    0.0019
    --------------------------------------------
      LOOP:  cpu time   23.3454: real time   23.3564

 eigenvalue-minimisations  :  3048
 total energy-change (2. order) : 0.6504204E+04  (-0.1893369E+05)
 number of electron     488.0000000 magnetization 
 augmentation part      488.0000000 magnetization 

 Free energy of the ion-electron system (eV)
  ---------------------------------------------------
  alpha Z        PSCENC =       794.46773418
  Ewald energy   TEWEN  =    131458.19715083
  -Hartree energ DENC   =   -158884.79421487
  -exchange      EXHF   =         0.00000000
  -V(xc)+E(xc)   XCENC  =     -2415.32965379
  PAW double counting   =     27756.46856853   -23708.40288526
  entropy T*S    EENTRO =         0.00150217
  eigenvalues    EBANDS =      1000.90596975
  atomic energy  EATOM  =     30502.69009049
  Solvation  Ediel_sol  =         0.00000000
  ---------------------------------------------------
  free energy    TOTEN  =      6504.20426203 eV

  energy without entropy =     6504.20275986  energy(sigma->0) =     6504.20388649


--------------------------------------------------------------------------------------------------------




----------------------------------------- Iteration    1(   2)  ---------------------------------------


     EDDAV:  cpu time   23.0742: real time   23.0742
       DOS:  cpu time    0.0018: real time    0.0018
    --------------------------------------------
      LOOP:  cpu time   23.0772: real time   23.0782

 eigenvalue-minimisations  :  3032
 total energy-change (2. order) :-0.5435237E+04  (-0.5269149E+04)
 number of electron     488.0000000 magnetization 
 augmentation part      488.0000000 magnetization 

 Free energy of the ion-electron system (eV)
  ---------------------------------------------------
  alpha Z        PSCENC =       794.46773418
  Ewald energy   TEWEN  =    131458.19715083
  -Hartree energ DENC   =   -158884.79421487
  -exchange      EXHF   =         0.00000000
  -V(xc)+E(xc)   XCENC  =     -2415.32965379
  PAW double counting   =     27756.46856853   -23708.40288526
  entropy T*S    EENTRO =        -0.00636134
  eigenvalues    EBANDS =     -4434.32333761
  atomic energy  EATOM  =     30502.69009049
  Solvation  Ediel_sol  =         0.00000000
  ---------------------------------------------------
  free energy    TOTEN  =      1068.96709116 eV

  energy without entropy =     1068.97345250  energy(sigma->0) =     1068.96868150


--------------------------------------------------------------------------------------------------------




----------------------------------------- Iteration    1(   3)  ---------------------------------------


     EDDAV:  cpu time   36.2021: real time   36.2022
       DOS:  cpu time    0.0018: real time    0.0018
    --------------------------------------------
      LOOP:  cpu time   36.2051: real time   36.2067

 eigenvalue-minimisations  :  5264
 total energy-change (2. order) :-0.1658077E+04  (-0.1609153E+04)
 number of electron     488.0000000 magnetization 
 augmentation part      488.0000000 magnetization 

 Free energy of the ion-electron system (eV)
  ---------------------------------------------------
  alpha Z        PSCENC =       794.46773418
  Ewald energy   TEWEN  =    131458.19715083
  -Hartree energ DENC   =   -158884.79421487
  -exchange      EXHF   =         0.00000000
  -V(xc)+E(xc)   XCENC  =     -2415.32965379
  PAW double counting   =     27756.46856853   -23708.40288526
  entropy T*S    EENTRO =         0.01396827
  eigenvalues    EBANDS =     -6092.42022124
  atomic energy  EATOM  =     30502.69009049
  Solvation  Ediel_sol  =         0.00000000
  ---------------------------------------------------
  free energy    TOTEN  =      -589.10946287 eV

  energy without entropy =     -589.12343113  energy(sigma->0) =     -589.11295493


--------------------------------------------------------------------------------------------------------




----------------------------------------- Iteration    1(   4)  ---------------------------------------


     EDDAV:  cpu time   31.1167: real time   31.1167
       DOS:  cpu time    0.0019: real time    0.0019
    --------------------------------------------
      LOOP:  cpu time   31.1198: real time   31.1213

 eigenvalue-minimisations  :  4400
 total energy-change (2. order) :-0.2465678E+03  (-0.2399821E+03)
 number of electron     488.0000000 magnetization 
 augmentation part      488.0000000 magnetization 

 Free energy of the ion-electron system (eV)
  ---------------------------------------------------
  alpha Z        PSCENC =       794.46773418
  Ewald energy   TEWEN  =    131458.19715083
  -Hartree energ DENC   =   -158884.79421487
  -exchange      EXHF   =         0.00000000
  -V(xc)+E(xc)   XCENC  =     -2415.32965379
  PAW double counting   =     27756.46856853   -23708.40288526
  entropy T*S    EENTRO =        -0.00220859
  eigenvalues    EBANDS =     -6338.97186688
  atomic energy  EATOM  =     30502.69009049
  Solvation  Ediel_sol  =         0.00000000
  ---------------------------------------------------
  free energy    TOTEN  =      -835.67728536 eV

  energy without entropy =     -835.67507677  energy(sigma->0) =     -835.67673321


--------------------------------------------------------------------------------------------------------




----------------------------------------- Iteration    1(   5)  ---------------------------------------


     EDDAV:  cpu time   36.5343: real time   36.5343
       DOS:  cpu time    0.0017: real time    0.0017
    CHARGE:  cpu time    0.3636: real time    0.3637
    MIXING:  cpu time    0.0068: real time    0.0072
    --------------------------------------------
      LOOP:  cpu time   36.9078: real time   36.9097

 eigenvalue-minimisations  :  5320
 total energy-change (2. order) :-0.1923215E+02  (-0.1878027E+02)
 number of electron     487.9999909 magnetization 
 augmentation part       58.3732819 magnetization 

 Broyden mixing:
  rms(total) = 0.84854E+01    rms(broyden)= 0.84852E+01
  rms(prec ) = 0.89032E+01
  weight for this iteration     100.00

 Free energy of the ion-electron system (eV)
  ---------------------------------------------------
  alpha Z        PSCENC =       794.46773418
  Ewald energy   TEWEN  =    131458.19715083
  -Hartree energ DENC   =   -158884.79421487
  -exchange      EXHF   =         0.00000000
  -V(xc)+E(xc)   XCENC  =     -2415.32965379
  PAW double counting   =     27756.46856853   -23708.40288526
  entropy T*S    EENTRO =        -0.00054960
  eigenvalues    EBANDS =     -6358.20567702
  atomic energy  EATOM  =     30502.69009049
  Solvation  Ediel_sol  =         0.00000000
  ---------------------------------------------------
  free energy    TOTEN  =      -854.90943651 eV

  energy without entropy =     -854.90888691  energy(sigma->0) =     -854.90929911


--------------------------------------------------------------------------------------------------------




----------------------------------------- Iteration    1(   6)  ---------------------------------------


    POTLOK:  cpu time    0.0994: real time    0.0994
    SETDIJ:  cpu time    0.0096: real time    0.0096
    EDDIAG:  cpu time    1.4517: real time    1.4521
  RMM-DIIS:  cpu time   25.8692: real time   25.8694
    ORTHCH:  cpu time    0.3851: real time    0.3851
       DOS:  cpu time    0.0017: real time    0.0017
    CHARGE:  cpu time    0.3612: real time    0.3612
    MIXING:  cpu time    0.0050: real time    0.0050
    --------------------------------------------
      LOOP:  cpu time   28.1847: real time   28.1870

 eigenvalue-minimisations  :  4760
 total energy-change (2. order) :-0.3510132E+01  (-0.1563663E+03)
 number of electron     487.9999935 magnetization 
 augmentation part       72.4260475 magnetization 

 Broyden mixing:
  rms(total) = 0.50762E+01    rms(broyden)= 0.50758E+01
  rms(prec ) = 0.64089E+01
  weight for this iteration     100.00

 eigenvalues of (default mixing * dielectric matrix)
  average eigenvalue GAMMA=   0.7901
  0.7901

 Free energy of the ion-electron system (eV)
  ---------------------------------------------------
  alpha Z        PSCENC =       794.46773418
  Ewald energy   TEWEN  =    131458.19715083
  -Hartree energ DENC   =   -159937.79203503
  -exchange      EXHF   =         0.00000000
  -V(xc)+E(xc)   XCENC  =     -2370.02127171
  PAW double counting   =     33071.34443145   -29034.42992693
  entropy T*S    EENTRO =         0.00740651
  eigenvalues    EBANDS =     -5342.88314848
  atomic energy  EATOM  =     30502.69009049
  Solvation  Ediel_sol  =         0.00000000
  ---------------------------------------------------
  free energy    TOTEN  =      -858.41956868 eV

  energy without entropy =     -858.42697519  energy(sigma->0) =     -858.42142031


--------------------------------------------------------------------------------------------------------




----------------------------------------- Iteration    1(   7)  ---------------------------------------


    POTLOK:  cpu time    0.1075: real time    0.1075
    SETDIJ:  cpu time    0.0107: real time    0.0107
    EDDIAG:  cpu time    1.4374: real time    1.4375
  RMM-DIIS:  cpu time   21.9115: real time   21.9169
    ORTHCH:  cpu time    0.3833: real time    0.3833
       DOS:  cpu time    0.0018: real time    0.0018
    CHARGE:  cpu time    0.3600: real time    0.3600
    MIXING:  cpu time    0.0036: real time    0.0036
    --------------------------------------------
      LOOP:  cpu time   24.2177: real time   24.2250

 eigenvalue-minimisations  :  3985
 total energy-change (2. order) :-0.4174336E+01  (-0.4072816E+02)
 number of electron     487.9999938 magnetization 
 augmentation part       69.7055012 magnetization 

 Broyden mixing:
  rms(total) = 0.46020E+01    rms(broyden)= 0.46020E+01
  rms(prec ) = 0.76184E+01
  weight for this iteration     100.00

 eigenvalues of (default mixing * dielectric matrix)
  average eigenvalue GAMMA=   0.6868
  1.0050  0.3686

 Free energy of the ion-electron system (eV)
  ---------------------------------------------------
  alpha Z        PSCENC =       794.46773418
  Ewald energy   TEWEN  =    131458.19715083
  -Hartree energ DENC   =   -159147.95367662
  -exchange      EXHF   =         0.00000000
  -V(xc)+E(xc)   XCENC  =     -2376.52695700
  PAW double counting   =     34013.47921777   -29989.43196509
  entropy T*S    EENTRO =        -0.00538752
  eigenvalues    EBANDS =     -6117.51011198
  atomic energy  EATOM  =     30502.69009049
  Solvation  Ediel_sol  =         0.00000000
  ---------------------------------------------------
  free energy    TOTEN  =      -862.59390494 eV

  energy without entropy =     -862.58851742  energy(sigma->0) =     -862.59255806


--------------------------------------------------------------------------------------------------------




----------------------------------------- Iteration    1(   8)  ---------------------------------------


    POTLOK:  cpu time    0.0954: real time    0.0954
    SETDIJ:  cpu time    0.0095: real time    0.0095
    EDDIAG:  cpu time    1.4435: real time    1.4435
  RMM-DIIS:  cpu time   25.0363: real time   25.0364
    ORTHCH:  cpu time    0.3846: real time    0.3846
       DOS:  cpu time    0.0017: real time    0.0017
    CHARGE:  cpu time    0.3714: real time    0.3714
    MIXING:  cpu time    0.0037: real time    0.0037
    --------------------------------------------
      LOOP:  cpu time   27.3482: real time   27.3500

 eigenvalue-minimisations  :  4573
 total energy-change (2. order) : 0.6259091E+02  (-0.2356575E+02)
 number of electron     487.9999935 magnetization 
 augmentation part       59.1643879 magnetization 

 Broyden mixing:
  rms(total) = 0.37277E+01    rms(broyden)= 0.37277E+01
  rms(prec ) = 0.55358E+01
  weight for this iteration     100.00

 eigenvalues of (default mixing * dielectric matrix)
  average eigenvalue GAMMA=   0.6469
  1.2741  0.4218  0.2449

 Free energy of the ion-electron system (eV)
  ---------------------------------------------------
  alpha Z        PSCENC =       794.46773418
  Ewald energy   TEWEN  =    131458.19715083
  -Hartree energ DENC   =   -159663.93152868
  -exchange      EXHF   =         0.00000000
  -V(xc)+E(xc)   XCENC  =     -2378.29292270
  PAW double counting   =     35062.64266964   -31042.17990643
  entropy T*S    EENTRO =         0.00125501
  eigenvalues    EBANDS =     -5533.59753335
  atomic energy  EATOM  =     30502.69009049
  Solvation  Ediel_sol  =         0.00000000
  ---------------------------------------------------
  free energy    TOTEN  =      -800.00299100 eV

  energy without entropy =     -800.00424601  energy(sigma->0) =     -800.00330475


--------------------------------------------------------------------------------------------------------




----------------------------------------- Iteration    1(   9)  ---------------------------------------


    POTLOK:  cpu time    0.0951: real time    0.0951
    SETDIJ:  cpu time    0.0094: real time    0.0094
    EDDIAG:  cpu time    1.4523: real time    1.4523
  RMM-DIIS:  cpu time   22.1169: real time   22.1170
    ORTHCH:  cpu time    0.3843: real time    0.3843
       DOS:  cpu time    0.0017: real time    0.0017
    CHARGE:  cpu time    0.3687: real time    0.3687
    MIXING:  cpu time    0.0049: real time    0.0049
    --------------------------------------------
      LOOP:  cpu time   24.4354: real time   24.4373

 eigenvalue-minimisations  :  4043
 total energy-change (2. order) : 0.4704067E+02  (-0.7413303E+01)
 number of electron     487.9999930 magnetization 
 augmentation part       60.3463140 magnetization 

 Broyden mixing:
  rms(total) = 0.23180E+01    rms(broyden)= 0.23180E+01
  rms(prec ) = 0.27346E+01
  weight for this iteration     100.00

 eigenvalues of (default mixing * dielectric matrix)
  average eigenvalue GAMMA=   0.7046
  1.6187  0.4955  0.4955  0.2086

 Free energy of the ion-electron system (eV)
  ---------------------------------------------------
  alpha Z        PSCENC =       794.46773418
  Ewald energy   TEWEN  =    131458.19715083
  -Hartree energ DENC   =   -159569.65832399
  -exchange      EXHF   =         0.00000000
  -V(xc)+E(xc)   XCENC  =     -2376.12540090
  PAW double counting   =     36224.54565381   -32197.58997180
  entropy T*S    EENTRO =         0.00048608
  eigenvalues    EBANDS =     -5589.48973715
  atomic energy  EATOM  =     30502.69009049
  Solvation  Ediel_sol  =         0.00000000
  ---------------------------------------------------
  free energy    TOTEN  =      -752.96231843 eV

  energy without entropy =     -752.96280452  energy(sigma->0) =     -752.96243995


--------------------------------------------------------------------------------------------------------




----------------------------------------- Iteration    1(  10)  ---------------------------------------


    POTLOK:  cpu time    0.0981: real time    0.0981
    SETDIJ:  cpu time    0.0093: real time    0.0093
    EDDIAG:  cpu time    1.4599: real time    1.4599
  RMM-DIIS:  cpu time   22.1803: real time   22.1803
    ORTHCH:  cpu time    0.3841: real time    0.3841
       DOS:  cpu time    0.0018: real time    0.0018
    CHARGE:  cpu time    0.3600: real time    0.3600
    MIXING:  cpu time    0.0043: real time    0.0043
    --------------------------------------------
      LOOP:  cpu time   24.4997: real time   24.5015

 eigenvalue-minimisations  :  4053
 total energy-change (2. order) : 0.8685320E+01  (-0.7385114E+01)
 number of electron     487.9999934 magnetization 
 augmentation part       65.4209412 magnetization 

 Broyden mixing:
  rms(total) = 0.13287E+01    rms(broyden)= 0.13287E+01
  rms(prec ) = 0.16209E+01
  weight for this iteration     100.00

 eigenvalues of (default mixing * dielectric matrix)
  average eigenvalue GAMMA=   0.7332
  1.9203  0.6494  0.5380  0.3653  0.1929

 Free energy of the ion-electron system (eV)
  ---------------------------------------------------
  alpha Z        PSCENC =       794.46773418
  Ewald energy   TEWEN  =    131458.19715083
  -Hartree energ DENC   =   -159699.48953356
  -exchange      EXHF   =         0.00000000
  -V(xc)+E(xc)   XCENC  =     -2370.35048524
  PAW double counting   =     37366.01815863   -33330.38313604
  entropy T*S    EENTRO =         0.01652374
  eigenvalues    EBANDS =     -5465.44350145
  atomic energy  EATOM  =     30502.69009049
  Solvation  Ediel_sol  =         0.00000000
  ---------------------------------------------------
  free energy    TOTEN  =      -744.27699842 eV

  energy without entropy =     -744.29352216  energy(sigma->0) =     -744.28112936


--------------------------------------------------------------------------------------------------------




----------------------------------------- Iteration    1(  11)  ---------------------------------------


    POTLOK:  cpu time    0.0955: real time    0.0956
    SETDIJ:  cpu time    0.0092: real time    0.0092
    EDDIAG:  cpu time    1.4478: real time    1.4478
  RMM-DIIS:  cpu time   24.2763: real time   24.2763
    ORTHCH:  cpu time    0.3854: real time    0.3854
       DOS:  cpu time    0.0016: real time    0.0017
    CHARGE:  cpu time    0.3612: real time    0.3612
    MIXING:  cpu time    0.0043: real time    0.0043
    --------------------------------------------
      LOOP:  cpu time   26.5833: real time   26.5850

 eigenvalue-minimisations  :  4449
 total energy-change (2. order) : 0.8055587E+00  (-0.4398211E+01)
 number of electron     487.9999934 magnetization 
 augmentation part       65.4752831 magnetization 

 Broyden mixing:
  rms(total) = 0.11605E+01    rms(broyden)= 0.11605E+01
  rms(prec ) = 0.13828E+01
  weight for this iteration     100.00

 eigenvalues of (default mixing * dielectric matrix)
  average eigenvalue GAMMA=   0.7013
  1.9542  0.8361  0.4629  0.4629  0.1942  0.2973

 Free energy of the ion-electron system (eV)
  ---------------------------------------------------
  alpha Z        PSCENC =       794.46773418
  Ewald energy   TEWEN  =    131458.19715083
  -Hartree energ DENC   =   -159792.03985468
  -exchange      EXHF   =         0.00000000
[...]
   0.109E+03 0.500E+02 0.208E+03   -.110E+03 -.503E+02 -.207E+03   0.426E+00 0.339E+00 -.119E+01   0.500E-02 0.348E-02 -.511E-02
   -.675E+02 0.145E+03 0.222E+04   0.683E+02 -.145E+03 -.221E+04   -.563E+00 -.397E+00 -.281E+01   -.127E-02 0.238E-02 0.194E-02
   -.332E+02 -.267E+02 0.304E+03   0.360E+02 0.276E+02 -.305E+03   -.290E+01 -.853E+00 0.586E+00   0.231E-02 0.371E-02 -.174E-02
   -.330E+03 -.884E+01 0.140E+04   0.331E+03 0.838E+01 -.140E+04   -.863E+00 0.851E+00 -.112E+01   -.365E-02 0.227E-02 -.421E-03
   -.299E+03 0.257E+03 -.135E+04   0.302E+03 -.259E+03 0.135E+04   -.320E+01 0.126E+01 0.108E+01   0.777E-03 -.198E-03 -.437E-02
   0.274E+03 -.126E+03 0.207E+04   -.274E+03 0.126E+03 -.207E+04   0.248E+00 -.403E+00 -.425E+01   0.297E-02 -.429E-02 -.221E-02
   0.163E+03 0.968E+02 0.482E+03   -.161E+03 -.988E+02 -.484E+03   -.208E+01 0.203E+01 0.189E+01   0.267E-02 -.389E-02 -.395E-02
   -.381E+02 -.905E+01 0.458E+03   0.373E+02 0.893E+01 -.458E+03   0.108E+01 -.250E-02 0.470E+00   0.126E-03 -.189E-02 -.192E-02
   -.390E+02 -.336E+02 -.489E+03   0.380E+02 0.329E+02 0.488E+03   0.926E+00 0.649E+00 0.422E+00   0.138E-02 0.119E-02 -.154E-02
   0.159E+03 -.244E+02 0.454E+03   -.158E+03 0.243E+02 -.455E+03   -.140E+01 0.416E+00 0.610E+00   0.953E-03 -.493E-03 -.142E-02
   0.223E+03 0.493E+02 -.488E+03   -.223E+03 -.483E+02 0.489E+03   -.264E+00 -.978E+00 -.107E+01   -.790E-03 0.414E-03 -.105E-02
   0.969E+02 -.670E+02 0.167E+03   -.956E+02 0.680E+02 -.169E+03   -.129E+01 -.920E+00 0.234E+01   -.473E-03 -.109E-02 -.483E-03
   0.113E+03 -.540E+02 0.631E+03   -.112E+03 0.541E+02 -.628E+03   -.760E+00 -.172E+00 -.277E+01   0.107E-02 0.133E-02 -.154E-03
   -.138E+03 0.540E+02 0.988E+02   0.139E+03 -.531E+02 -.100E+03   -.110E+01 -.963E+00 0.117E+01   0.466E-03 -.811E-03 0.647E-03
   -.968E+02 0.599E+02 0.678E+03   0.962E+02 -.595E+02 -.675E+03   0.465E+00 -.396E+00 -.277E+01   -.127E-02 0.146E-02 0.729E-03
   0.539E+02 -.296E+02 0.379E+03   -.548E+02 0.290E+02 -.378E+03   0.965E+00 0.729E+00 -.705E+00   0.539E-03 0.616E-03 -.143E-02
   0.187E+02 0.553E+02 -.415E+03   -.183E+02 -.564E+02 0.416E+03   -.380E+00 0.105E+01 -.134E+01   0.106E-02 -.212E-03 -.101E-02
   -.143E+03 0.186E+02 -.349E+03   0.143E+03 -.193E+02 0.349E+03   0.445E+00 0.812E+00 0.179E+00   -.298E-03 -.739E-03 -.619E-03
   -.144E+03 -.126E+01 0.408E+03   0.144E+03 0.108E+01 -.409E+03   0.284E+00 -.109E+00 0.101E+00   -.938E-03 0.147E-02 0.188E-03
   -.143E+03 -.441E+01 0.644E+03   0.142E+03 0.444E+01 -.641E+03   0.842E+00 -.109E+00 -.270E+01   -.118E-02 -.379E-03 0.743E-03
   -.122E+03 0.366E+02 0.122E+03   0.120E+03 -.366E+02 -.123E+03   0.178E+01 -.482E-01 0.749E+00   -.688E-03 -.236E-03 0.520E-03
   0.532E+02 0.218E+02 0.404E+03   -.531E+02 -.213E+02 -.405E+03   0.162E+00 -.925E-01 -.239E+00   0.807E-03 -.705E-03 -.113E-02
   0.842E+02 -.385E+02 -.486E+03   -.828E+02 0.398E+02 0.486E+03   -.133E+01 -.134E+01 0.570E+00   0.199E-02 -.181E-03 -.594E-03
   0.431E+02 -.273E+02 0.197E+03   -.426E+02 0.278E+02 -.199E+03   -.495E+00 -.520E+00 0.254E+01   0.850E-03 -.954E-03 -.472E-03
   0.290E+02 0.847E+00 0.658E+03   -.297E+02 -.878E+00 -.656E+03   0.574E+00 0.643E-03 -.254E+01   0.293E-03 0.992E-03 0.234E-03
   0.114E+03 0.841E+00 0.399E+03   -.114E+03 -.902E+00 -.399E+03   -.879E+00 0.683E+00 -.437E+00   0.436E-03 -.126E-02 -.223E-02
   0.898E+02 0.296E+02 -.442E+03   -.883E+02 -.281E+02 0.441E+03   -.148E+01 -.151E+01 0.139E+01   0.910E-03 0.145E-02 -.930E-03
   0.122E+03 0.215E+02 0.467E+03   -.122E+03 -.214E+02 -.468E+03   0.238E+00 -.545E+00 0.154E+01   0.206E-03 -.536E-04 -.142E-02
   0.985E+02 -.623E+02 -.394E+03   -.999E+02 0.621E+02 0.393E+03   0.141E+01 0.223E+00 0.443E+00   -.123E-02 -.292E-03 -.391E-03
   0.123E+03 0.368E+02 0.607E+03   -.123E+03 -.366E+02 -.604E+03   0.143E+00 -.545E+00 -.300E+01   0.121E-02 -.149E-02 -.467E-03
   0.133E+03 0.902E+02 0.866E+02   -.133E+03 -.910E+02 -.875E+02   -.205E+00 0.782E+00 0.962E+00   0.811E-04 0.130E-02 -.108E-02
   -.914E+02 -.212E+01 0.652E+03   0.917E+02 0.218E+01 -.648E+03   -.414E+00 -.669E-01 -.322E+01   -.107E-02 0.363E-03 0.281E-03
   -.957E+02 -.467E+01 0.827E+02   0.952E+02 0.523E+01 -.821E+02   0.491E+00 -.585E+00 -.576E+00   -.636E-03 0.108E-03 0.157E-03
   0.123E+03 0.316E+02 0.628E+03   -.122E+03 -.319E+02 -.626E+03   -.222E+00 0.355E+00 -.254E+01   0.447E-03 0.840E-03 -.241E-03
   0.129E+03 -.427E+02 0.117E+03   -.129E+03 0.437E+02 -.119E+03   -.233E+00 -.101E+01 0.201E+01   0.749E-03 0.534E-03 -.118E-02
   0.862E+02 -.434E+02 -.591E+03   -.856E+02 0.411E+02 0.588E+03   -.612E+00 0.227E+01 0.206E+01   0.299E-03 -.990E-03 0.770E-04
   0.106E+03 0.892E+01 0.420E+03   -.106E+03 -.907E+01 -.420E+03   0.246E+00 -.331E-01 -.623E+00   0.121E-02 0.128E-02 -.382E-03
   0.463E+02 -.303E+00 0.426E+03   -.464E+02 0.303E+00 -.427E+03   0.470E+00 0.147E+00 0.536E+00   0.123E-03 -.127E-02 -.401E-03
   -.163E+02 0.217E+02 -.417E+03   0.155E+02 -.228E+02 0.416E+03   0.797E+00 0.112E+01 0.145E+01   -.827E-03 0.890E-03 -.564E-03
   -.336E+02 0.390E+00 0.610E+03   0.340E+02 -.775E-01 -.606E+03   -.129E+00 -.202E+00 -.300E+01   0.684E-03 -.164E-02 0.309E-03
   -.106E+03 -.123E+02 0.137E+03   0.106E+03 0.132E+02 -.138E+03   0.121E+00 -.102E+01 0.721E+00   -.389E-03 0.932E-03 -.199E-03
   0.527E+02 -.620E+01 0.594E+03   -.527E+02 0.546E+01 -.591E+03   -.301E-01 0.227E+00 -.313E+01   0.813E-03 -.111E-03 0.347E-04
   0.673E+02 0.377E+02 0.617E+02   -.669E+02 -.384E+02 -.618E+02   -.403E+00 0.750E+00 0.419E-01   -.594E-03 0.107E-03 -.251E-03
   -.490E+02 0.441E+01 0.400E+03   0.494E+02 -.419E+01 -.401E+03   -.312E+00 0.361E+00 0.382E-02   0.402E-05 0.453E-04 -.138E-03
   -.623E+02 -.851E+02 -.487E+03   0.630E+02 0.847E+02 0.485E+03   -.706E+00 0.509E+00 0.249E+01   -.113E-02 -.535E-03 -.301E-03
   0.431E+02 0.406E+01 0.607E+03   -.424E+02 -.393E+01 -.603E+03   -.809E+00 -.354E+00 -.342E+01   0.942E-03 0.609E-03 0.265E-03
   0.236E+02 -.925E+02 0.114E+03   -.234E+02 0.934E+02 -.114E+03   -.147E+00 -.853E+00 0.516E+00   -.808E-03 -.353E-03 -.371E-03
   -.841E+02 -.101E+02 0.397E+03   0.836E+02 0.982E+01 -.399E+03   0.730E+00 0.950E-02 -.365E+00   -.332E-03 0.296E-03 0.259E-03
   -.127E+03 0.127E+02 -.495E+03   0.124E+03 -.132E+02 0.494E+03   0.288E+01 0.571E+00 0.112E+01   -.651E-03 0.599E-03 -.991E-03
   0.704E+02 0.482E+02 -.393E+03   -.697E+02 -.480E+02 0.394E+03   -.668E+00 -.225E+00 -.106E+01   -.127E-02 -.830E-03 -.422E-03
   0.524E+02 -.139E+01 0.401E+03   -.518E+02 0.130E+01 -.401E+03   -.815E+00 0.349E+00 -.845E-01   0.270E-04 0.148E-02 -.301E-03
   -.139E+03 -.433E+02 0.676E+03   0.139E+03 0.426E+02 -.672E+03   0.834E+00 0.840E-01 -.332E+01   -.185E-02 -.123E-02 0.665E-04
   -.855E+02 -.707E+02 0.940E+02   0.854E+02 0.697E+02 -.937E+02   0.125E+00 0.946E+00 -.288E+00   -.944E-03 0.102E-02 -.610E-03
   -.130E+03 0.132E+02 0.393E+03   0.129E+03 -.128E+02 -.393E+03   0.179E+00 0.559E-01 0.339E+00   -.540E-03 -.136E-02 0.413E-03
   -.105E+03 -.380E+02 -.489E+03   0.103E+03 0.387E+02 0.488E+03   0.123E+01 -.641E+00 0.123E+01   -.627E-03 0.538E-03 -.605E-03
   0.140E+03 -.300E+02 -.918E+03   -.142E+03 0.330E+02 0.927E+03   0.126E+01 -.302E+01 -.965E+01   0.825E-03 -.255E-02 0.115E-02
   -.111E+03 0.306E+02 -.102E+04   0.112E+03 -.343E+02 0.104E+04   -.117E+01 0.376E+01 -.171E+02   -.707E-04 0.126E-02 -.168E-02
   0.183E+03 0.354E+02 -.656E+03   -.183E+03 -.372E+02 0.662E+03   -.202E+00 0.178E+01 -.629E+01   -.254E-02 0.423E-02 -.119E-02
   -.101E+03 0.399E+02 -.828E+03   0.102E+03 -.393E+02 0.837E+03   -.406E-01 -.621E+00 -.994E+01   -.130E-02 -.336E-03 -.240E-02
   0.159E+03 0.301E+02 -.102E+04   -.161E+03 -.343E+02 0.104E+04   0.158E+01 0.418E+01 -.189E+02   -.461E-03 -.669E-03 -.168E-02
   0.115E+03 0.431E+02 -.105E+04   -.113E+03 -.413E+02 0.107E+04   -.152E+01 -.180E+01 -.228E+02   -.352E-03 0.230E-02 -.510E-03
   -.104E+03 -.171E+03 -.111E+04   0.104E+03 0.171E+03 0.113E+04   -.396E+00 -.580E-01 -.206E+02   -.828E-03 0.240E-05 -.195E-02
   0.692E+02 -.381E+02 -.111E+04   -.716E+02 0.434E+02 0.113E+04   0.246E+01 -.533E+01 -.226E+02   0.410E-02 0.233E-02 0.826E-03
   0.511E+02 -.488E+02 -.102E+04   -.485E+02 0.461E+02 0.104E+04   -.260E+01 0.266E+01 -.193E+02   -.316E-02 -.228E-02 0.433E-04
   0.689E+02 0.690E+02 -.960E+03   -.727E+02 -.619E+02 0.974E+03   0.387E+01 -.710E+01 -.141E+02   0.346E-02 -.607E-03 -.218E-02
   0.789E+02 0.167E+02 -.112E+04   -.814E+02 -.258E+02 0.114E+04   0.254E+01 0.914E+01 -.203E+02   0.913E-03 0.186E-03 -.417E-03
   -.190E+03 -.115E+02 -.116E+04   0.187E+03 0.161E+02 0.118E+04   0.266E+01 -.462E+01 -.209E+02   -.106E-02 -.637E-03 -.334E-02
   -.281E+03 -.510E+02 -.887E+03   0.283E+03 0.556E+02 0.894E+03   -.122E+01 -.470E+01 -.711E+01   -.409E-03 -.155E-02 -.123E-02
   0.115E+03 0.170E+02 -.121E+04   -.115E+03 -.149E+02 0.123E+04   -.157E-01 -.209E+01 -.247E+02   0.340E-02 -.161E-02 -.935E-04
   -.100E+03 0.577E+02 -.663E+03   0.104E+03 -.618E+02 0.669E+03   -.402E+01 0.407E+01 -.639E+01   0.142E-02 -.709E-03 -.381E-03
   0.131E+03 -.952E+02 -.234E+03   -.130E+03 0.963E+02 0.232E+03   -.934E+00 -.112E+01 0.168E+01   -.669E-03 -.239E-02 -.367E-03
   -.933E+02 -.469E+01 -.196E+03   0.891E+02 0.374E+01 0.197E+03   0.417E+01 0.926E+00 -.537E+00   -.296E-03 0.153E-02 -.556E-04
   0.997E+02 0.956E+01 0.122E+03   -.997E+02 -.958E+01 -.121E+03   -.190E-01 0.162E-01 -.389E+00   -.210E-02 -.117E-02 0.162E-03
   -.168E+03 -.963E+02 -.861E+02   0.168E+03 0.930E+02 0.889E+02   -.497E+00 0.315E+01 -.268E+01   -.900E-03 0.152E-02 0.316E-03
   0.308E+03 0.686E+02 0.163E+03   -.312E+03 -.704E+02 -.168E+03   0.377E+01 0.179E+01 0.472E+01   0.153E-03 -.693E-03 -.545E-03
   0.157E+03 -.375E+02 -.291E+03   -.158E+03 0.364E+02 0.286E+03   0.676E+00 0.108E+01 0.445E+01   0.171E-02 -.102E-02 -.346E-03
   -.400E+02 0.610E+02 -.162E+03   0.418E+02 -.640E+02 0.163E+03   -.186E+01 0.297E+01 -.102E+01   0.277E-02 -.173E-02 0.418E-03
   0.122E+03 -.766E+02 -.321E+03   -.119E+03 0.827E+02 0.321E+03   -.360E+01 -.615E+01 -.107E+00   -.412E-03 -.179E-02 0.324E-03
   -.113E+03 -.334E+02 -.398E+02   0.111E+03 0.391E+02 0.415E+02   0.196E+01 -.562E+01 -.179E+01   0.418E-03 -.153E-02 0.195E-02
 -----------------------------------------------------------------------------------------------
   -.852E+01 0.232E+01 0.257E+03   0.782E-12 -.163E-12 -.188E-11   0.851E+01 -.231E+01 -.257E+03   0.960E-02 -.106E-01 -.552E-01
 
 
 POSITION                                       TOTAL-FORCE (eV/Angst)
 -----------------------------------------------------------------------------------
      8.57631      8.29685     10.39845        -0.031942     -0.144700      0.136402
      8.56522      3.55750     15.07976         0.010090     -0.025241      0.007521
      8.10145      6.19527     17.71476         0.034530      0.012212     -0.014952
      8.51616      0.79995     12.43874         0.082576     -0.091622      0.192773
     13.43470      6.11399     15.02481         0.003962      0.009390      0.009110
     13.49094      1.15316     10.44749         0.013136     -0.417800     -0.032562
     10.03344      3.28428     12.67411        -0.007107      0.341697     -0.553071
     10.00748      8.23854     17.66140         0.057008      0.075611     -0.035101
      7.12524      5.81577     10.15765        -0.214833     -0.415540      0.935374
      7.05509      1.12488     15.13846         0.003235      0.004148     -0.004970
      8.51222      3.28036     10.20450         0.219722      0.070578      0.779101
      8.49289      8.31611     15.16144        -0.040920     -0.006913      0.001399
     10.22263      8.06723     12.77991        -0.235061      0.386881     -0.463996
     10.39002      3.86749     17.73404         0.007271      0.016995      0.009578
      5.42664      8.10481     10.20639         0.288330      0.106143      0.969411
      5.56914      3.29211     14.89088         0.002030      0.001006      0.005758
      8.52843      5.75423     12.65640         0.234992     -0.122257      0.032281
      8.68129      1.37451     17.56271        -0.005940      0.001712     -0.043934
      3.84829      7.97317     12.47259        -0.295376      0.314724     -0.301367
      3.82042      3.50526     17.18767        -0.001778     -0.006454     -0.008959
      3.81678      5.55669     14.99264        -0.000337     -0.000967      0.000927
      3.90063      0.73891     10.00000         0.467261     -0.122769      0.251242
      9.91076      5.98968     15.47940         0.010002      0.002823     -0.016960
     10.19112      1.10470     10.13736        -0.137371      0.046908      0.461602
      6.82945      7.99424     12.66670         0.074364      0.126483     -0.451212
      6.76467      3.69586     17.37788         0.029180      0.010014      0.014414
     11.93911      6.32147     17.58265         0.002251      0.034520      0.028205
     11.66772      1.05372     12.57547        -0.454486     -0.286644     -0.685568
     11.73919      3.33868     10.41199        -0.278269     -0.076435      0.603910
     11.57236      8.14739     15.04606        -0.024896     -0.062045     -0.055819
      7.18522      3.24644     12.75390         0.199972      0.427230     -0.689071
      7.12169      8.75613     17.77907         0.006034      0.000960      0.015584
      6.82638      5.77589     14.88268         0.006353     -0.004456      0.005360
      6.87795      0.97560     10.08695        -0.084103     -0.029218      0.169704
      5.51084      5.55012     12.48419        -0.335146      0.621151     -0.243723
      5.50464      1.16394     17.66438         0.004204      0.010520      0.001894
      3.51249      3.50019     12.83519        -0.073316     -0.381036     -0.101911
      3.20118      8.90399     17.58158         0.008067      0.008649      0.015461
      3.46798      5.87237     10.40868         0.010558     -0.320599     -0.173448
      3.49935      1.23428     15.15078        -0.007223     -0.000577      0.001796
     11.91771      8.21633     10.24534        -0.175373     -0.004191      0.730823
     11.83811      3.76198     15.32438        -0.004804     -0.020144     -0.009621
      5.24135      3.36543     10.32679         0.113014      0.107630      0.054462
      5.24466      8.26901     15.07551        -0.000664      0.004193      0.004836
      5.14081      6.49881     17.99230         0.025166     -0.001896     -0.009504
      5.28930      0.99064     12.60849         0.220420     -0.174484     -0.430761
      1.60538      5.84491     12.85122         0.389498      0.145834     -0.841886
      1.35039      1.62047     17.61830         0.006123      0.014489      0.019013
     13.72038      5.67134     10.18293         0.244530      0.108495      0.584576
     13.67279      0.89558     15.02523        -0.068800     -0.104227      0.116302
      1.63456      8.33987     10.36453        -0.055326     -0.506583      0.180043
      1.30275      3.67938     15.25234        -0.009873     -0.023800      0.001861
     13.76831      3.16119     12.53308         0.015404      0.581288     -0.181664
      0.39835      8.32282     17.88643        -0.007951      0.025567      0.009508
      1.99440      3.17314     10.17666        -0.106383     -0.216566      0.541894
      2.03289      8.12276     15.10006         0.017597     -0.011344      0.009678
     13.48051      8.37930     12.86886         0.255169     -0.318521     -1.508246
     13.32433      4.00108     18.10094         0.000985      0.021317     -0.021794
      2.07183      5.96583     17.45312         0.016014      0.005201      0.005647
      2.02729      0.87737     12.46815        -0.203235      0.268316     -0.222959
     10.07171      5.79402     10.14663         0.159996     -0.596304      0.286286
     10.11005      1.15459     15.01839         0.034883     -0.023505      0.006477
     11.97051      5.66181     12.67660        -0.644918      0.442293     -0.368858
     11.89569      1.24743     17.88591         0.019736      0.041160      0.052764
      5.12232      8.64836     18.25575         0.009808      0.002516     -0.002435
     13.55653      2.08363     18.96343         0.019608      0.048192      0.021737
      3.46840      1.40127     17.54999         0.007715      0.011341      0.009748
      0.10730      6.14335     18.22874         0.008581      0.017207     -0.042903
      3.69539      5.14026     18.52002         0.022124      0.002227      0.006399
      5.32388      2.98849     18.45935         0.017057      0.011603      0.002290
     10.12232      0.44090     18.68955         0.008754      0.036921     -0.011141
      7.14333      0.84760     18.78181         0.007908      0.006312      0.001665
      2.26543      7.68082     18.77833        -0.014825      0.014091     -0.000219
      8.50371      3.29569     18.21777         0.009829      0.002964      0.028706
      6.77317      5.44008     18.60601         0.041342      0.025897     -0.005299
     11.64512      4.88092     18.94313        -0.002975      0.008348      0.001906
     12.04739      8.31206     18.15117         0.023655     -0.056877      0.182957
      8.38574      7.66992     18.74293         0.056504      0.013226     -0.017919
      9.91845      6.07069     17.61277         0.022704      0.012287     -0.022626
      3.73594      7.11882     16.42108         0.001155      0.003846     -0.000741
     13.51595      2.61800     16.37604        -0.016356     -0.019911      0.000706
      1.71339      5.91663     15.17765        -0.010698     -0.005405      0.009667
     11.83063      0.35281     15.96611        -0.099078     -0.145185      0.134553
      3.43615      3.49236     14.99137        -0.005164     -0.003081      0.008097
      6.73821      7.18840     16.50540         0.042945      0.018259     -0.002387
      8.12651      5.01646     16.28179         0.013816     -0.006878     -0.002517
      5.29087      4.94501     16.39716         0.024989      0.000540     -0.000560
     13.61171      7.85921     15.80137         0.022368      0.122256     -0.080744
 -----------------------------------------------------------------------------------
    total drift:                                0.004127     -0.001604      0.007389


--------------------------------------------------------------------------------------------------------



  FREE ENERGIE OF THE ION-ELECTRON SYSTEM (eV)
  ---------------------------------------------------
  free  energy   TOTEN  =      -739.35055576 eV

  energy  without entropy=     -739.34335654  energy(sigma->0) =     -739.34875596
 


--------------------------------------------------------------------------------------------------------


    POTLOK:  cpu time    0.1123: real time    0.1128


--------------------------------------------------------------------------------------------------------


     LOOP+:  cpu time  901.3162: real time  901.4559
    4ORBIT:  cpu time    0.0000: real time    0.0000

 total amount of memory used by VASP on root node   141437. kBytes
========================================================================

   base      :      30000. kBytes
   nonl-proj :      29063. kBytes
   fftplans  :       6516. kBytes
   grid      :      15878. kBytes
   one-center:         62. kBytes
   wavefun   :      59918. kBytes
 
  
  
 General timing and accounting informations for this job:
 ========================================================
  
                  Total CPU time used (sec):      920.361
                            User time (sec):      916.773
                          System time (sec):        3.588
                         Elapsed time (sec):      920.590
  
                   Maximum memory used (kb):      177888.
                   Average memory used (kb):           0.
  
                          Minor page faults:        54003
                          Major page faults:            0
                 Voluntary context switches:         1442
