 vasp.5.4.1 05Feb16 (build Mar 19 2020 08:54:17) complex                        
  
 executed on           IFC91_ompi date 2021.11.05  22:57:57
 running on   48 total cores
 distrk:  each k-point on   48 cores,    1 groups
 distr:  one band on NCORES_PER_BAND=  24 cores,    2 groups


--------------------------------------------------------------------------------------------------------


 INCAR:
 POTCAR:    PAW_PBE Al 04Jan2001                  
 POTCAR:    PAW_PBE Nb_sv 25May2007               
 POTCAR:    PAW_PBE Ta 17Jan2003                  
 POTCAR:    PAW_PBE Ti 08Apr2002                  
 POTCAR:   PAW_PBE Zr 08Apr2002                   
 POTCAR:    PAW_PBE O 08Apr2002                   

 ----------------------------------------------------------------------------- 
|                                                                             |
|           W    W    AA    RRRRR   N    N  II  N    N   GGGG   !!!           |
|           W    W   A  A   R    R  NN   N  II  NN   N  G    G  !!!           |
|           W    W  A    A  R    R  N N  N  II  N N  N  G       !!!           |
|           W WW W  AAAAAA  RRRRR   N  N N  II  N  N N  G  GGG   !            |
|           WW  WW  A    A  R   R   N   NN  II  N   NN  G    G                |
|           W    W  A    A  R    R  N    N  II  N    N   GGGG   !!!           |
|                                                                             |
|      For optimal performance we recommend to set                            |
|        NCORE= 4 - approx SQRT( number of cores)                             |
|      NCORE specifies how many cores store one orbital (NPAR=cpu/NCORE).     |
|      This setting can  greatly improve the performance of VASP for DFT.     |
|      The default, NPAR=number of cores might be grossly inefficient         |
|      on modern multi-core architectures or massively parallel machines.     |
|      Do your own testing !!!!                                               |
|      Unfortunately you need to use the default for GW and RPA calculations. |
|      (for HF NCORE is supported but not extensively tested yet)             |
|                                                                             |
 ----------------------------------------------------------------------------- 

 POTCAR:    PAW_PBE Al 04Jan2001                  
   VRHFIN =Al: s2p1                                                             
   LEXCH  = PE                                                                  
   EATOM  =    53.5387 eV,    3.9350 Ry                                         
                                                                                
   TITEL  = PAW_PBE Al 04Jan2001                                                
   LULTRA =        F    use ultrasoft PP ?                                      
   IUNSCR =        1    unscreen: 0-lin 1-nonlin 2-no                           
   RPACOR =    1.500    partial core radius                                     
   POMASS =   26.981; ZVAL   =    3.000    mass and valenz                      
   RCORE  =    1.900    outmost cutoff radius                                   
   RWIGS  =    2.650; RWIGS  =    1.402    wigner-seitz radius (au A)           
   ENMAX  =  240.300; ENMIN  =  180.225 eV                                      
   ICORE  =        2    local potential                                         
   LCOR   =        T    correct aug charges                                     
   LPAW   =        T    paw PP                                                  
   EAUG   =  291.052                                                            
   DEXC   =    0.000                                                            
   RMAX   =    1.939    core radius for proj-oper                               
   RAUG   =    1.300    factor for augmentation sphere                          
   RDEP   =    1.966    radius for radial grids                                 
   RDEPT  =    1.856    core radius for aug-charge                              
                                                                                
   Atomic configuration                                                         
    6 entries                                                                   
     n  l   j            E        occ.                                          
     1  0  0.50     -1511.1048   2.0000                                         
     2  0  0.50      -108.1629   2.0000                                         
     2  1  1.50       -69.6402   6.0000                                         
     3  0  0.50        -7.7528   2.0000                                         
     3  1  1.50        -2.7121   1.0000                                         
     3  2  2.50        -2.7212   0.0000                                         
   Description                                                                  
     l       E           TYP  RCUT    TYP  RCUT                                 
     0     -7.7528455     23  1.900                                             
     0     -3.3096929     23  1.900                                             
     1     -2.7120682     23  1.900                                             
     1     13.6058260     23  1.900                                             
     2     -2.7211652      7  1.900                                             
  local pseudopotential read in
  partial core-charges read in
  partial kinetic energy density read in
  atomic valenz-charges read in
  non local Contribution for L=           0  read in
    real space projection operators read in
  non local Contribution for L=           0  read in
    real space projection operators read in
  non local Contribution for L=           1  read in
    real space projection operators read in
  non local Contribution for L=           1  read in
    real space projection operators read in
    PAW grid and wavefunctions read in
 
   number of l-projection  operators is LMAX  =           4
   number of lm-projection operators is LMMAX =           8
 
 POTCAR:    PAW_PBE Nb_sv 25May2007               
   VRHFIN =Nb: 4p5s4d                                                           
   LEXCH  = PE                                                                  
   EATOM  =  1555.1913 eV,  114.3033 Ry                                         
                                                                                
   TITEL  = PAW_PBE Nb_sv 25May2007                                             
   LULTRA =        F    use ultrasoft PP ?                                      
   IUNSCR =        1    unscreen: 0-lin 1-nonlin 2-no                           
   RPACOR =    1.800    partial core radius                                     
   POMASS =   92.910; ZVAL   =   13.000    mass and valenz                      
   RCORE  =    2.400    outmost cutoff radius                                   
   RWIGS  =    2.400; RWIGS  =    1.270    wigner-seitz radius (au A)           
   ENMAX  =  293.235; ENMIN  =  219.927 eV                                      
   ICORE  =        3    local potential                                         
   LCOR   =        T    correct aug charges                                     
   LPAW   =        T    paw PP                                                  
   EAUG   =  455.659                                                            
   DEXC   =    0.000                                                            
   RMAX   =    2.456    core radius for proj-oper                               
   RAUG   =    1.300    factor for augmentation sphere                          
   RDEP   =    2.451    radius for radial grids                                 
   RDEPT  =    1.956    core radius for aug-charge                              
                                                                                
   Atomic configuration                                                         
   11 entries                                                                   
     n  l   j            E        occ.                                          
     1  0  0.50    -18805.2457   2.0000                                         
     2  0  0.50     -2630.2869   2.0000                                         
     2  1  1.50     -2348.4046   6.0000                                         
     3  0  0.50      -438.8757   2.0000                                         
     3  1  1.50      -346.7588   6.0000                                         
     3  2  2.50      -196.2560  10.0000                                         
     4  0  0.50       -58.3859   2.0000                                         
     5  0  0.50        -3.9816   1.0000                                         
     4  1  1.50       -34.5141   6.0000                                         
     4  2  2.50        -3.0408   4.0000                                         
     4  3  2.50        -1.3606   0.0000                                         
   Description                                                                  
     l       E           TYP  RCUT    TYP  RCUT                                 
     0    -58.3859094     23  2.200                                             
     0     -3.9816262     23  2.200                                             
     1    -34.5140738     23  2.200                                             
     1     13.6058260     23  2.200                                             
     2     -3.0408010     23  2.200                                             
     2     -0.1283038     23  2.200                                             
     3     -1.3605826     23  2.400                                             
  local pseudopotential read in
  partial core-charges read in
  partial kinetic energy density read in
  atomic valenz-charges read in
  non local Contribution for L=           0  read in
    real space projection operators read in
  non local Contribution for L=           0  read in
    real space projection operators read in
  non local Contribution for L=           1  read in
    real space projection operators read in
  non local Contribution for L=           1  read in
    real space projection operators read in
  non local Contribution for L=           2  read in
    real space projection operators read in
  non local Contribution for L=           2  read in
    real space projection operators read in
    PAW grid and wavefunctions read in
 
   number of l-projection  operators is LMAX  =           6
   number of lm-projection operators is LMMAX =          18
 
 POTCAR:    PAW_PBE Ta 17Jan2003                  
   VRHFIN =Ta:  6s5d                                                            
   LEXCH  = PE                                                                  
   EATOM  =   130.6506 eV,    9.6025 Ry                                         
                                                                                
   TITEL  = PAW_PBE Ta 17Jan2003                                                
   LULTRA =        F    use ultrasoft PP ?                                      
   IUNSCR =        1    unscreen: 0-lin 1-nonlin 2-no                           
   RPACOR =    2.330    partial core radius                                     
   POMASS =  180.948; ZVAL   =    5.000    mass and valenz                      
   RCORE  =    2.900    outmost cutoff radius                                   
   RWIGS  =    2.840; RWIGS  =    1.503    wigner-seitz radius (au A)           
   ENMAX  =  223.667; ENMIN  =  167.750 eV                                      
   RCLOC  =    2.205    cutoff for local pot                                    
   LCOR   =        T    correct aug charges                                     
   LPAW   =        T    paw PP                                                  
   EAUG   =  332.075                                                            
   DEXC   =    0.000                                                            
   RMAX   =    2.970    core radius for proj-oper                               
   RAUG   =    1.300    factor for augmentation sphere                          
   RDEP   =    3.060    radius for radial grids                                 
   RDEPT  =    2.354    core radius for aug-charge                              
                                                                                
   Atomic configuration                                                         
   16 entries                                                                   
     n  l   j            E        occ.                                          
     1  0  0.50    -67341.2807   2.0000                                         
     2  0  0.50    -11566.9376   2.0000                                         
     2  1  1.50    -10134.1182   6.0000                                         
     3  0  0.50     -2648.5620   2.0000                                         
     3  1  1.50     -2222.6012   6.0000                                         
     3  2  2.50     -1726.3120  10.0000                                         
     4  0  0.50      -538.6961   2.0000                                         
     4  1  1.50      -399.0129   6.0000                                         
     4  2  2.50      -220.3959  10.0000                                         
     4  3  3.50       -23.0374  14.0000                                         
     5  0  0.50       -71.2901   2.0000                                         
     5  1  1.50       -37.8225   6.0000                                         
     5  2  2.50        -2.6455   4.0000                                         
     6  0  0.50        -4.9623   1.0000                                         
     6  1  1.50        -1.3606   0.0000                                         
     5  3  2.50        -1.3606   0.0000                                         
   Description                                                                  
     l       E           TYP  RCUT    TYP  RCUT                                 
     2     -2.6455043     23  2.500                                             
     2     -0.6258895     23  2.500                                             
     0     -4.9622780     23  2.500                                             
     0      4.7531321     23  2.500                                             
     1     -1.3605826     23  2.900                                             
     1     27.2116520     23  2.900                                             
  local pseudopotential read in
  partial core-charges read in
  partial kinetic energy density read in
  atomic valenz-charges read in
  non local Contribution for L=           2  read in
    real space projection operators read in
  non local Contribution for L=           2  read in
    real space projection operators read in
  non local Contribution for L=           0  read in
    real space projection operators read in
  non local Contribution for L=           0  read in
    real space projection operators read in
  non local Contribution for L=           1  read in
    real space projection operators read in
  non local Contribution for L=           1  read in
    real space projection operators read in
    PAW grid and wavefunctions read in
 
   number of l-projection  operators is LMAX  =           6
   number of lm-projection operators is LMMAX =          18
 
 POTCAR:    PAW_PBE Ti 08Apr2002                  
   VRHFIN =Ti: d3 s1                                                            
   LEXCH  = PE                                                                  
   EATOM  =    94.7928 eV,    6.9671 Ry                                         
                                                                                
   TITEL  = PAW_PBE Ti 08Apr2002                                                
   LULTRA =        F    use ultrasoft PP ?                                      
   IUNSCR =        1    unscreen: 0-lin 1-nonlin 2-no                           
   RPACOR =    2.200    partial core radius                                     
   POMASS =   47.880; ZVAL   =    4.000    mass and valenz                      
   RCORE  =    2.800    outmost cutoff radius                                   
   RWIGS  =    2.500; RWIGS  =    1.323    wigner-seitz radius (au A)           
   ENMAX  =  178.330; ENMIN  =  133.747 eV                                      
   RCLOC  =    2.215    cutoff for local pot                                    
   LCOR   =        T    correct aug charges                                     
   LPAW   =        T    paw PP                                                  
   EAUG   =  328.883                                                            
   DEXC   =    0.000                                                            
   RMAX   =    2.868    core radius for proj-oper                               
   RAUG   =    1.300    factor for augmentation sphere                          
   RDEP   =    2.885    radius for radial grids                                 
   RDEPT  =    2.320    core radius for aug-charge                              
                                                                                
   Atomic configuration                                                         
    9 entries                                                                   
     n  l   j            E        occ.                                          
     1  0  0.50     -4865.3608   2.0000                                         
     2  0  0.50      -533.1367   2.0000                                         
     2  1  1.50      -440.5031   6.0000                                         
     3  0  0.50       -59.3186   2.0000                                         
     3  1  1.50       -35.7012   6.0000                                         
     3  2  2.50        -1.9157   3.0000                                         
     4  0  0.50        -3.7291   1.0000                                         
     4  1  1.50        -4.0817   0.0000                                         
     4  3  2.50        -1.3606   0.0000                                         
   Description                                                                  
     l       E           TYP  RCUT    TYP  RCUT                                 
     2     -1.9156924     23  2.800                                             
     2     -0.4062961     23  2.800                                             
     0     -3.7290832     23  2.800                                             
     0     20.4087390     23  2.800                                             
     1     -5.4423304     23  2.800                                             
  local pseudopotential read in
  partial core-charges read in
  partial kinetic energy density read in
  atomic valenz-charges read in
  non local Contribution for L=           2  read in
    real space projection operators read in
  non local Contribution for L=           2  read in
    real space projection operators read in
  non local Contribution for L=           0  read in
    real space projection operators read in
  non local Contribution for L=           0  read in
    real space projection operators read in
  non local Contribution for L=           1  read in
    real space projection operators read in
    PAW grid and wavefunctions read in
 
   number of l-projection  operators is LMAX  =           5
   number of lm-projection operators is LMMAX =          15
 
 POTCAR:   PAW_PBE Zr 08Apr2002                   
   VRHFIN =Zr: 5s4d5p                                                           
   LEXCH  = PE                                                                  
   EATOM  =    77.8472 eV,    5.7216 Ry                                         
                                                                                
   TITEL  = PAW_PBE Zr 08Apr2002                                                
   LULTRA =        F    use ultrasoft PP ?                                      
   IUNSCR =        1    unscreen: 0-lin 1-nonlin 2-no                           
   RPACOR =    2.200    partial core radius                                     
   POMASS =   91.224; ZVAL   =    4.000    mass and valenz                      
   RCORE  =    3.000    outmost cutoff radius                                   
   RWIGS  =    3.070; RWIGS  =    1.625    wigner-seitz radius (au A)           
   ENMAX  =  154.632; ENMIN  =  115.974 eV                                      
   RCLOC  =    2.213    cutoff for local pot                                    
   LCOR   =        T    correct aug charges                                     
   LPAW   =        T    paw PP                                                  
   EAUG   =  243.217                                                            
   DEXC   =    -.082                                                            
   RMAX   =    3.708    core radius for proj-oper                               
   RAUG   =    1.300    factor for augmentation sphere                          
   RDEP   =    3.146    radius for radial grids                                 
   QCUT   =   -3.371; QGAM   =    6.742    optimization parameters              
                                                                                
   Description                                                                  
     l     E      TYP  RCUT    TYP  RCUT                                        
     2   .000     23  3.000                                                     
     2   .000     23  3.000                                                     
     0   .000     23  3.000                                                     
     0  2.000     23  3.000                                                     
     1  -.400     23  3.000                                                     
     3   .000      7   .000                                                     
  local pseudopotential read in
  partial core-charges read in
  atomic valenz-charges read in
  non local Contribution for L=           2  read in
    real space projection operators read in
  non local Contribution for L=           2  read in
    real space projection operators read in
  non local Contribution for L=           0  read in
    real space projection operators read in
  non local Contribution for L=           0  read in
    real space projection operators read in
  non local Contribution for L=           1  read in
    real space projection operators read in
    PAW grid and wavefunctions read in
 
   number of l-projection  operators is LMAX  =           5
   number of lm-projection operators is LMMAX =          15
 
 POTCAR:    PAW_PBE O 08Apr2002                   
   VRHFIN =O: s2p4                                                              
   LEXCH  = PE                                                                  
   EATOM  =   432.3788 eV,   31.7789 Ry                                         
                                                                                
   TITEL  = PAW_PBE O 08Apr2002                                                 
   LULTRA =        F    use ultrasoft PP ?                                      
   IUNSCR =        1    unscreen: 0-lin 1-nonlin 2-no                           
   RPACOR =    1.200    partial core radius                                     
   POMASS =   16.000; ZVAL   =    6.000    mass and valenz                      
   RCORE  =    1.520    outmost cutoff radius                                   
   RWIGS  =    1.550; RWIGS  =    0.820    wigner-seitz radius (au A)           
   ENMAX  =  400.000; ENMIN  =  300.000 eV                                      
   ICORE  =        2    local potential                                         
   LCOR   =        T    correct aug charges                                     
   LPAW   =        T    paw PP                                                  
   EAUG   =  605.392                                                            
   DEXC   =    0.000                                                            
   RMAX   =    1.553    core radius for proj-oper                               
   RAUG   =    1.300    factor for augmentation sphere                          
   RDEP   =    1.550    radius for radial grids                                 
   RDEPT  =    1.329    core radius for aug-charge                              
                                                                                
   Atomic configuration                                                         
    4 entries                                                                   
     n  l   j            E        occ.                                          
     1  0  0.50      -514.6923   2.0000                                         
     2  0  0.50       -23.9615   2.0000                                         
     2  1  0.50        -9.0305   4.0000                                         
     3  2  1.50        -9.5241   0.0000                                         
   Description                                                                  
     l       E           TYP  RCUT    TYP  RCUT                                 
     0    -23.9615318     23  1.200                                             
     0     -9.5240782     23  1.200                                             
     1     -9.0304911     23  1.520                                             
     1      8.1634956     23  1.520                                             
     2     -9.5240782      7  1.500                                             
  local pseudopotential read in
  partial core-charges read in
  partial kinetic energy density read in
  kinetic energy density of atom read in
  atomic valenz-charges read in
  non local Contribution for L=           0  read in
    real space projection operators read in
  non local Contribution for L=           0  read in
    real space projection operators read in
  non local Contribution for L=           1  read in
    real space projection operators read in
  non local Contribution for L=           1  read in
    real space projection operators read in
    PAW grid and wavefunctions read in
 
   number of l-projection  operators is LMAX  =           4
   number of lm-projection operators is LMMAX =           8
 

 ----------------------------------------------------------------------------- 
|                                                                             |
|  ADVICE TO THIS USER RUNNING 'VASP/VAMP'   (HEAR YOUR MASTER'S VOICE ...):  |
|                                                                             |
|      You have a (more or less) 'large supercell' and for larger cells       |
|      it might be more efficient to use real space projection opertators     |
|      So try LREAL= Auto  in the INCAR   file.                               |
|      Mind: At the moment your POTCAR file does not contain real space       |
|       projectors, and has to be modified,  BUT if you                       |
|      want to do an extremely  accurate calculation you might also keep the  |
|      reciprocal projection scheme          (i.e. LREAL=.FALSE.)             |
|                                                                             |
 ----------------------------------------------------------------------------- 

 WARNING: PSMAXN for non-local potential too small
          PSMAXN should be >   12.5490833729506       NTYP=           5
  PAW_PBE Al 04Jan2001                  :
 energy of atom  1       EATOM=  -53.5387
 kinetic energy error for atom=    0.0002 (will be added to EATOM!!)
  PAW_PBE Nb_sv 25May2007               :
 energy of atom  2       EATOM=-1555.1913
 kinetic energy error for atom=    0.0037 (will be added to EATOM!!)
  PAW_PBE Ta 17Jan2003                  :
 energy of atom  3       EATOM= -130.6506
 kinetic energy error for atom=    0.0004 (will be added to EATOM!!)
  PAW_PBE Ti 08Apr2002                  :
 energy of atom  4       EATOM=  -94.7928
 kinetic energy error for atom=    0.0001 (will be added to EATOM!!)
 PAW_PBE Zr 08Apr2002                   :
 energy of atom  5       EATOM=  -77.8472
 kinetic energy error for atom=    0.0001 (will be added to EATOM!!)
  PAW_PBE O 08Apr2002                   :
 energy of atom  6       EATOM= -432.3788
 kinetic energy error for atom=    0.0168 (will be added to EATOM!!)
 
 
 POSCAR: Al Nb Ta Ti Zr                          
  positions in direct lattice
  velocities in cartesian coordinates
 exchange correlation table for  LEXCH =        8
   RHO(1)=    0.500       N(1)  =     2000
   RHO(2)=  100.500       N(2)  =     4000
 


--------------------------------------------------------------------------------------------------------


 ion  position               nearest neighbor table
   1  0.623  0.867  0.376-  34 2.83  25 2.88  24 2.88   9 2.88  13 2.90   4 2.91  61 2.93  15 3.16
                            41 3.35  17 3.40
   2  0.618  0.396  0.547-  31 2.78  33 2.82  23 2.84  14 2.92  10 2.93   7 2.94  26 2.97  62 3.01
                             3 3.06  16 3.16  17 3.16  42 3.45
   3  0.589  0.625  0.623-  79 1.83  75 1.84  78 1.90  32 2.64  33 2.72  26 2.82   8 2.83  45 2.93
                            23 2.98   2 3.06  14 3.08
   4  0.618  0.084  0.450-  31 2.80  24 2.86  34 2.87  13 2.88   1 2.91  25 2.92   7 2.92  62 2.97
                            10 3.06  28 3.16  46 3.24
   5  0.981  0.635  0.549-  27 2.78  30 2.81  56 2.94  42 2.96  63 2.97  47 3.00  52 3.05  59 3.17
                            57 3.27  54 3.38  58 3.53
   6  0.980  0.121  0.378-  29 2.80  28 2.80  53 2.91  41 2.96  51 3.05  55 3.05  60 3.08  57 3.37

   7  0.729  0.343  0.458-  28 2.77  29 2.83  31 2.85  17 2.89  11 2.90   4 2.92   2 2.94  62 3.05
                            63 3.07  42 3.13
   8  0.725  0.846  0.632-  78 2.02  71 2.04  77 2.07  79 2.17  27 2.71  32 2.79   3 2.83  30 2.85
                            12 2.91  18 2.92  64 3.18
   9  0.517  0.608  0.367-  35 2.84  15 2.85  17 2.87   1 2.88  11 2.89  61 2.95  43 3.10
  10  0.511  0.132  0.545-  16 2.83  18 2.89  36 2.90   2 2.93  12 2.94  46 3.04  62 3.04   4 3.06
                            31 3.06  44 3.17
  11  0.618  0.343  0.369-  24 2.75  34 2.83  31 2.87   9 2.89   7 2.90  61 2.96  43 3.27
  12  0.621  0.869  0.540-  13 2.75  23 2.80  32 2.80  33 2.85  25 2.88  62 2.91   8 2.91  10 2.94
                            44 3.43
  13  0.742  0.843  0.462-  12 2.75  17 2.87   4 2.88   1 2.90  28 2.94  63 2.98  41 3.05  30 3.07
                            23 3.09  57 3.27  62 3.47
  14  0.740  0.390  0.633-  74 1.99  76 2.01  79 2.23   2 2.92  42 2.98  18 3.02  27 3.03  64 3.07
                             3 3.08  58 3.13
  15  0.394  0.847  0.369-  22 2.68  19 2.76  25 2.83  34 2.84   9 2.85  39 2.98   1 3.16  46 3.43

  16  0.390  0.370  0.547-  21 2.63  20 2.81  10 2.83  26 2.88  40 2.90  33 2.92  37 2.94  31 3.00
                             2 3.16
  17  0.619  0.602  0.458-  33 2.76  25 2.81  31 2.85   9 2.87  13 2.87   7 2.89  61 2.95  23 3.01
                            35 3.03   2 3.16   1 3.40  63 3.44
  18  0.629  0.118  0.631-  72 2.04  71 2.04  74 2.07  32 2.67  10 2.89  62 2.91   8 2.92  26 2.97
                            14 3.02  64 3.16  36 3.16
  19  0.279  0.834  0.451-  15 2.76  35 2.94  46 2.96  44 2.97  39 2.97  25 2.99  60 3.07  51 3.08
                            47 3.12  56 3.28  21 3.33
  20  0.272  0.347  0.629-  69 2.00  70 2.04  67 2.17  16 2.81  36 2.95  48 3.03  52 3.06  40 3.07
                            59 3.09  26 3.12  45 3.19
  21  0.271  0.584  0.534-  80 2.06  16 2.63  37 2.86  47 2.89  35 2.90  52 2.92  44 3.06  45 3.07
                            33 3.14  56 3.17  59 3.20  19 3.33
  22  0.283  0.077  0.361-  15 2.68  46 2.97  43 2.97  34 2.99  51 3.02  55 3.10  60 3.10
  23  0.742  0.634  0.547-  79 2.15  12 2.80  30 2.82   2 2.84  27 2.91   3 2.98  17 3.01  63 3.04
                            42 3.05  13 3.09
  24  0.740  0.115  0.366-  29 2.73  11 2.75  28 2.85   4 2.86   1 2.88  41 3.00
  25  0.496  0.836  0.458-  35 2.78  17 2.81  15 2.83   1 2.88  12 2.88  33 2.91   4 2.92  19 2.99
                            46 2.99  44 3.00
  26  0.498  0.364  0.636-  70 1.90  75 1.92  74 1.97   3 2.82  36 2.87  16 2.88  18 2.97   2 2.97
                            20 3.12  45 3.15
  27  0.866  0.650  0.632-  79 2.02  76 2.02  68 2.04  77 2.12   8 2.71  58 2.73   5 2.78  23 2.91
                            54 2.97  30 3.00  14 3.03
  28  0.847  0.110  0.455-   7 2.77   6 2.80  62 2.85  24 2.85  57 2.90  13 2.94  53 2.98  50 3.04
                            29 3.15   4 3.16  41 3.36
  29  0.852  0.349  0.376-  24 2.73   6 2.80   7 2.83  53 2.94  61 2.98  49 3.07  28 3.15  63 3.25

  30  0.861  0.873  0.555-  77 2.20   5 2.81  23 2.82   8 2.85  50 2.95  57 2.97  27 3.00  62 3.06
                            13 3.07  64 3.24  54 3.29
  31  0.522  0.339  0.461-   2 2.78   4 2.80  17 2.85   7 2.85  35 2.86  11 2.87  46 2.95  16 3.00
                            10 3.06  43 3.11
  32  0.524  0.884  0.629-  78 1.88  72 2.00  65 2.01   3 2.64  18 2.67  36 2.68   8 2.79  12 2.80
                            45 3.05  44 3.08
  33  0.497  0.631  0.536-   3 2.72  35 2.73  17 2.76   2 2.82  44 2.84  12 2.85  25 2.91  16 2.92
                            45 3.08  21 3.14
  34  0.499  0.102  0.365-  11 2.83   1 2.83  15 2.84   4 2.87  43 2.91  46 2.98  22 2.99
  35  0.400  0.580  0.451-  33 2.73  25 2.78   9 2.84  31 2.86  37 2.88  21 2.90  39 2.93  19 2.94
                            17 3.03  43 3.08
  36  0.400  0.099  0.634-  72 1.94  70 2.01  67 2.05  65 2.13  32 2.68  26 2.87  10 2.90  38 2.94
                            20 2.95  40 3.13  18 3.16  44 3.29
  37  0.255  0.366  0.464-  21 2.86  35 2.88  16 2.94  47 3.02  60 3.04  43 3.05  55 3.08  46 3.08
                            52 3.09  40 3.18  39 3.39
  38  0.231  0.911  0.634-  73 1.89  67 2.03  65 2.05  80 2.15  56 2.86  54 2.88  36 2.94  48 2.96
                            59 3.12  44 3.13  40 3.25  45 3.26
  39  0.252  0.614  0.376-  35 2.93  19 2.97  15 2.98  47 3.07  43 3.07  51 3.07  55 3.08  37 3.39
                            49 3.53
  40  0.257  0.134  0.546-  67 2.40  16 2.90  44 3.02  20 3.07  46 3.07  52 3.07  60 3.07  36 3.13
                            37 3.18  48 3.20  56 3.21  38 3.25  50 3.64
  41  0.865  0.859  0.370-   6 2.96  24 3.00  61 3.05  13 3.05  57 3.06  49 3.12   1 3.35  28 3.36
                            51 3.49  63 3.53
  42  0.868  0.372  0.547-   5 2.96  14 2.98  62 3.00  23 3.05  50 3.06   7 3.13  58 3.16  53 3.19
                            63 3.23  52 3.42   2 3.45  64 3.47
  43  0.381  0.352  0.373-  34 2.91  22 2.97  37 3.05  39 3.07  35 3.08   9 3.10  31 3.11  55 3.26
                            11 3.27  46 3.29
  44  0.373  0.866  0.547-  65 2.36  80 2.37  33 2.84  19 2.97  25 3.00  40 3.02  21 3.06  32 3.08
                            38 3.13  45 3.13  10 3.17  56 3.29  36 3.29  46 3.39  12 3.43
  45  0.377  0.644  0.630-  69 2.09  75 2.10  65 2.25  80 2.26   3 2.93  32 3.05  21 3.07  33 3.08
                            44 3.13  26 3.15  20 3.19  59 3.24  38 3.26
  46  0.384  0.104  0.456-  31 2.95  19 2.96  22 2.97  34 2.98  25 2.99  10 3.04  40 3.07  37 3.08
                             4 3.24  60 3.27  43 3.29  44 3.39  15 3.43
  47  0.117  0.611  0.465-  21 2.89   5 3.00  37 3.02  39 3.07  19 3.12  53 3.14  49 3.15  57 3.17
                            56 3.19  52 3.25  63 3.42  51 3.52  55 3.80
  48  0.097  0.154  0.630-  66 2.10  67 2.16  38 2.96  50 2.98  54 3.02  20 3.03  58 3.09  52 3.10
                            40 3.20  64 3.32  56 3.79
  49  0.996  0.593  0.368-  63 3.05  29 3.07  41 3.12  47 3.15  51 3.16  55 3.23  53 3.44  39 3.53
                            61 3.65  57 3.82
  50  0.994  0.109  0.537-  30 2.95  48 2.98  57 2.99  28 3.04  42 3.06  53 3.14  52 3.14  56 3.17
                            60 3.19  64 3.33  62 3.61  40 3.64  54 3.79
  51  0.119  0.872  0.375-  60 3.00  22 3.02   6 3.05  39 3.07  19 3.08  57 3.16  49 3.16  41 3.49
                            47 3.52
  52  0.116  0.383  0.551-  21 2.92   5 3.05  20 3.06  40 3.07  37 3.09  48 3.10  59 3.11  50 3.14
                            53 3.19  47 3.25  42 3.42  58 3.43
  53  1.000  0.331  0.453-   6 2.91  29 2.94  28 2.98  60 3.06  63 3.08  55 3.09  50 3.14  47 3.14
                            42 3.19  52 3.19  49 3.44
  54  0.026  0.857  0.641-  77 2.11  73 2.15  68 2.25  59 2.87  38 2.88  27 2.97  48 3.02  56 3.06
                            30 3.29   5 3.38  64 3.40  50 3.79
  55  0.145  0.332  0.368-   6 3.05  37 3.08  39 3.08  53 3.09  22 3.10  49 3.23  60 3.24  43 3.26
                            47 3.80
  56  0.134  0.848  0.545-  80 2.27  38 2.86   5 2.94  54 3.06  57 3.09  21 3.17  50 3.17  47 3.19
                            40 3.21  59 3.28  19 3.28  44 3.29  60 3.50  48 3.79
  57  0.979  0.876  0.465-  28 2.90  30 2.97  50 2.99  41 3.06  56 3.09  63 3.11  60 3.13  51 3.16
                            47 3.17   5 3.27  13 3.27   6 3.37  49 3.82
  58  0.965  0.408  0.650-  66 2.07  76 2.08  68 2.22  27 2.73  48 3.09  14 3.13  42 3.16  59 3.16
                            64 3.18  52 3.43   5 3.53
  59  0.143  0.611  0.630-  69 2.14  68 2.15  73 2.20  80 2.26  54 2.87  20 3.09  52 3.11  38 3.12
                            58 3.16   5 3.17  21 3.20  45 3.24  56 3.28
  60  0.147  0.092  0.451-  51 3.00  37 3.04  53 3.06  19 3.07  40 3.07   6 3.08  22 3.10  57 3.13
                            50 3.19  55 3.24  46 3.27  56 3.50
  61  0.731  0.606  0.367-   1 2.93  17 2.95   9 2.95  11 2.96  29 2.98  41 3.05  63 3.17  49 3.65

  62  0.732  0.128  0.540-  28 2.85  18 2.91  12 2.91   4 2.97  42 3.00   2 3.01  10 3.04   7 3.05
                            30 3.06  64 3.18  13 3.47  50 3.61
  63  0.869  0.592  0.458-   5 2.97  13 2.98  23 3.04  49 3.05   7 3.07  53 3.08  57 3.11  61 3.17
                            42 3.23  29 3.25  47 3.42  17 3.44  41 3.53
  64  0.858  0.117  0.636-  71 2.12  66 2.14  77 2.36  14 3.07  18 3.16  58 3.18   8 3.18  62 3.18
                            30 3.24  48 3.32  50 3.33  54 3.40  42 3.47
  65  0.378  0.878  0.632-  32 2.01  38 2.05  36 2.13  45 2.25  44 2.36
  66  0.979  0.205  0.674-  58 2.07  48 2.10  64 2.14
  67  0.252  0.122  0.633-  38 2.03  36 2.05  48 2.16  20 2.17  40 2.40
  68  0.001  0.632  0.662-  27 2.04  59 2.15  58 2.22  54 2.25
  69  0.269  0.528  0.665-  20 2.00  45 2.09  59 2.14
  70  0.389  0.283  0.668-  26 1.90  36 2.01  20 2.04
  71  0.736  0.026  0.671-   8 2.04  18 2.04  64 2.12
  72  0.513  0.053  0.672-  36 1.94  32 2.00  18 2.04
  73  0.159  0.796  0.676-  38 1.89  54 2.15  59 2.20
  74  0.623  0.311  0.665-  26 1.97  14 1.99  18 2.07
  75  0.497  0.547  0.663-   3 1.84  26 1.92  45 2.10
  76  0.835  0.489  0.676-  14 2.01  27 2.02  58 2.08
  77  0.874  0.872  0.634-   8 2.07  54 2.11  27 2.12  30 2.20  64 2.36
  78  0.607  0.774  0.668-  32 1.88   3 1.90   8 2.02
  79  0.722  0.620  0.624-   3 1.83  27 2.02  23 2.15   8 2.17  14 2.23
  80  0.252  0.734  0.587-  21 2.06  38 2.15  59 2.26  45 2.26  56 2.27  44 2.37
 
  LATTYP: Found a simple orthorhombic cell.
 ALAT       =     9.5644817352
 B/A-ratio  =     1.4398428730
 C/A-ratio  =     2.8922184390
  
  Lattice vectors:
  
 A1 = (   0.0000000000,  -9.5644817352,   0.0000000000)
 A2 = ( -13.7713508606,   0.0000000000,   0.0000000000)
 A3 = (   0.0000000000,   0.0000000000, -27.6625704340)


Analysis of symmetry for initial positions (statically):
=====================================================================
 Subroutine PRICEL returns:
 Original cell was already a primitive cell.
 

 Routine SETGRP: Setting up the symmetry group for a 
 simple orthorhombic supercell.


 Subroutine GETGRP returns: Found  1 space group operations
 (whereof  1 operations were pure point group operations)
 out of a pool of  8 trial point group operations.


The static configuration has the point symmetry C_1 .


Analysis of symmetry for dynamics (positions and initial velocities):
=====================================================================
 Subroutine PRICEL returns:
 Original cell was already a primitive cell.
 

 Routine SETGRP: Setting up the symmetry group for a 
 simple orthorhombic supercell.


 Subroutine GETGRP returns: Found  1 space group operations
 (whereof  1 operations were pure point group operations)
 out of a pool of  8 trial point group operations.


The dynamic configuration has the point symmetry C_1 .


Analysis of constrained symmetry for selective dynamics:
=====================================================================
 Subroutine PRICEL returns:
 Original cell was already a primitive cell.
 

 Routine SETGRP: Setting up the symmetry group for a 
 simple orthorhombic supercell.


 Subroutine GETGRP returns: Found  1 space group operations
 (whereof  1 operations were pure point group operations)
 out of a pool of  8 trial point group operations.


The constrained configuration has the point symmetry C_1 .


 Subroutine INISYM returns: Found  1 space group operations
 (whereof  1 operations are pure point group operations),
 and found     1 'primitive' translations

 
 
 KPOINTS: k-points                                

Automatic generation of k-mesh.
Space group operators:
 irot       det(A)        alpha          n_x          n_y          n_z        tau_x        tau_y        tau_z
    1     1.000000     0.000000     1.000000     0.000000     0.000000     0.000000     0.000000     0.000000
 
 Subroutine IBZKPT returns following result:
 ===========================================
 
 Found      5 irreducible k-points:
 
 Following reciprocal coordinates:
            Coordinates               Weight
  0.000000  0.000000  0.000000      1.000000
  0.333333  0.000000  0.000000      2.000000
  0.000000  0.333333  0.000000      2.000000
  0.333333  0.333333  0.000000      2.000000
 -0.333333  0.333333  0.000000      2.000000
 
 Following cartesian coordinates:
            Coordinates               Weight
  0.000000  0.000000  0.000000      1.000000
  0.024205  0.000000  0.000000      2.000000
  0.000000  0.034851  0.000000      2.000000
  0.024205  0.034851  0.000000      2.000000
 -0.024205  0.034851  0.000000      2.000000
 


--------------------------------------------------------------------------------------------------------




 Dimension of arrays:
   k-points           NKPTS =      5   k-points in BZ     NKDIM =      5   number of bands    NBANDS=    264
   number of dos      NEDOS =    301   number of ions     NIONS =     80
   non local maximal  LDIM  =      6   non local SUM 2l+1 LMDIM =     18
   total plane-waves  NPLWV = 846720
   max r-space proj   IRMAX =      1   max aug-charges    IRDMAX=  25433
   dimension x,y,z NGX =    84 NGY =   60 NGZ =  168
   dimension x,y,z NGXF=   168 NGYF=  120 NGZF=  336
   support grid    NGXF=   168 NGYF=  120 NGZF=  336
   ions per type =               6  10   4  18  26  16
 NGX,Y,Z   is equivalent  to a cutoff of  10.14, 10.43, 10.10 a.u.
 NGXF,Y,Z  is equivalent  to a cutoff of  20.28, 20.86, 20.19 a.u.


 I would recommend the setting:
   dimension x,y,z NGX =    83 NGY =   57 NGZ =  166
 SYSTEM =  (110) surface                           
 POSCAR =  Al Nb Ta Ti Zr                          

 Startparameter for this run:
   NWRITE =      2    write-flag & timer
   PREC   = normal    normal or accurate (medium, high low for compatibility)
   ISTART =      0    job   : 0-new  1-cont  2-samecut
   ICHARG =      2    charge: 1-file 2-atom 10-const
   ISPIN  =      1    spin polarized calculation?
   LNONCOLLINEAR =      F non collinear calculations
   LSORBIT =      F    spin-orbit coupling
   INIWAV =      1    electr: 0-lowe 1-rand  2-diag
   LASPH  =      F    aspherical Exc in radial PAW
   METAGGA=      F    non-selfconsistent MetaGGA calc.

 Electronic Relaxation 1
   ENCUT  =  600.0 eV  44.10 Ry    6.64 a.u.  27.50 19.10 55.25*2*pi/ulx,y,z
   ENINI  =  600.0     initial cutoff
   ENAUG  =  605.4 eV  augmentation charge cutoff
   NELM   =     60;   NELMIN=  2; NELMDL= -5     # of ELM steps 
   EDIFF  = 0.1E-03   stopping-criterion for ELM
   LREAL  =      F    real-space projection
   NLSPLINE    = F    spline interpolate recip. space projectors
   LCOMPAT=      F    compatible to vasp.4.4
   GGA_COMPAT  = T    GGA compatible to vasp.4.4-vasp.4.6
   LMAXPAW     = -100 max onsite density
   LMAXMIX     =    2 max onsite mixed and CHGCAR
   VOSKOWN=      0    Vosko Wilk Nusair interpolation
   ROPT   =    0.00000   0.00000   0.00000   0.00000
   ROPT   =    0.00000   0.00000
 Ionic relaxation
   EDIFFG = 0.1E-02   stopping-criterion for IOM
   NSW    =      0    number of steps for IOM
   NBLOCK =      1;   KBLOCK =      1    inner block; outer block 
   IBRION =     -1    ionic relax: 0-MD 1-quasi-New 2-CG
   NFREE  =      0    steps in history (QN), initial steepest desc. (CG)
   ISIF   =      2    stress and relaxation
   IWAVPR =     10    prediction:  0-non 1-charg 2-wave 3-comb
   ISYM   =      2    0-nonsym 1-usesym 2-fastsym
   LCORR  =      T    Harris-Foulkes like correction to forces

   POTIM  = 0.1000    time-step for ionic-motion
   TEIN   =    0.0    initial temperature
   TEBEG  =    0.0;   TEEND  =   0.0 temperature during run
   SMASS  =  -3.00    Nose mass-parameter (am)
   estimated Nose-frequenzy (Omega)   =  0.10E-29 period in steps =****** mass=  -0.433E-26a.u.
   SCALEE = 1.0000    scale energy and forces
   NPACO  =    256;   APACO  = 16.0  distance and # of slots for P.C.
   PSTRESS=    0.0 pullay stress

  Mass of Ions in am
   POMASS =  26.98 92.91180.95 47.88 91.22 16.00
  Ionic Valenz
   ZVAL   =   3.00 13.00  5.00  4.00  4.00  6.00
  Atomic Wigner-Seitz radii
   RWIGS  =  -1.00 -1.00 -1.00 -1.00 -1.00 -1.00
  virtual crystal weights 
   VCA    =   1.00  1.00  1.00  1.00  1.00  1.00
   NELECT =     440.0000    total number of electrons
   NUPDOWN=      -1.0000    fix difference up-down

 DOS related values:
   EMIN   =  10.00;   EMAX   =-10.00  energy-range for DOS
   EFERMI =   0.00
   ISMEAR =     2;   SIGMA  =   0.10  broadening in eV -4-tet -1-fermi 0-gaus

 Electronic relaxation 2 (details)
   IALGO  =     68    algorithm
   LDIAG  =      T    sub-space diagonalisation (order eigenvalues)
   LSUBROT=      F    optimize rotation matrix (better conditioning)
   TURBO    =      0    0=normal 1=particle mesh
   IRESTART =      0    0=no restart 2=restart with 2 vectors
   NREBOOT  =      0    no. of reboots
   NMIN     =      0    reboot dimension
   EREF     =   0.00    reference energy to select bands
   IMIX   =      4    mixing-type and parameters
     AMIX     =   0.40;   BMIX     =  1.00
     AMIX_MAG =   1.60;   BMIX_MAG =  1.00
     AMIN     =   0.10
     WC   =   100.;   INIMIX=   1;  MIXPRE=   1;  MAXMIX= -45

 Intra band minimization:
   WEIMIN = 0.0000     energy-eigenvalue tresh-hold
   EBREAK =  0.95E-07  absolut break condition
   DEPER  =   0.30     relativ break condition  

   TIME   =   0.40     timestep for ELM

  volume/ion in A,a.u.               =      45.54       307.35
  Fermi-wavevector in a.u.,A,eV,Ry     =   0.809187  1.529142  8.908871  0.654784
  Thomas-Fermi vector in A             =   1.918131
 
 Write flags
   LWAVE  =      F    write WAVECAR
   LCHARG =      T    write CHGCAR
   LVTOT  =      F    write LOCPOT, total local potential
   LVHAR  =      F    write LOCPOT, Hartree potential only
   LELF   =      F    write electronic localiz. function (ELF)
   LORBIT =      0    0 simple, 1 ext, 2 COOP (PROOUT)


 Dipole corrections
   LMONO  =      F    monopole corrections only (constant potential shift)
   LDIPOL =      F    correct potential (dipole corrections)
   IDIPOL =      0    1-x, 2-y, 3-z, 4-all directions 
   EPSILON=  1.0000000 bulk dielectric constant

 Exchange correlation treatment:
   GGA     =    --    GGA type
   LEXCH   =     8    internal setting for exchange type
   VOSKOWN=      0    Vosko Wilk Nusair interpolation
   LHFCALC =     F    Hartree Fock is set to
   LHFONE  =     F    Hartree Fock one center treatment
   AEXX    =    0.0000 exact exchange contribution

 Linear response parameters
   LEPSILON=     F    determine dielectric tensor
   LRPA    =     F    only Hartree local field effects (RPA)
   LNABLA  =     F    use nabla operator in PAW spheres
   LVEL    =     F    velocity operator in full k-point grid
   LINTERFAST=   F  fast interpolation
   KINTER  =     0    interpolate to denser k-point grid
   CSHIFT  =0.1000    complex shift for real part using Kramers Kronig
   OMEGAMAX=  -1.0    maximum frequency
   DEG_THRESHOLD= 0.2000000E-02 threshold for treating states as degnerate
   RTIME   =    0.100 relaxation time in fs

 Orbital magnetization related:
   ORBITALMAG=     F  switch on orbital magnetization
   LCHIMAG   =     F  perturbation theory with respect to B field
   DQ        =  0.001000  dq finite difference perturbation B field



--------------------------------------------------------------------------------------------------------


 Static calculation
 charge density and potential will be updated during run
 non-spin polarized calculation
 RMM-DIIS sequential band-by-band and
  variant of blocked Davidson during initial phase
 perform sub-space diagonalisation
    before iterative eigenvector-optimisation
 modified Broyden-mixing scheme, WC =      100.0
 initial mixing is a Kerker type mixing with AMIX =  0.4000 and BMIX =      1.0000
 Hartree-type preconditioning will be used
 using additional bands           44
 reciprocal scheme for non local part
 use partial core corrections
 calculate Harris-corrections to forces 
   (improved forces if not selfconsistent)
 use gradient corrections 
 use of overlap-Matrix (Vanderbilt PP)
 Methfessel and Paxton  Order N= 2 SIGMA  =   0.10


--------------------------------------------------------------------------------------------------------


  energy-cutoff  :      600.00
  volume of cell :     3643.60
      direct lattice vectors                 reciprocal lattice vectors
    13.771350861  0.000000000  0.000000000     0.072614518  0.000000000  0.000000000
     0.000000000  9.564481735  0.000000000     0.000000000  0.104553496  0.000000000
     0.000000000  0.000000000 27.662570434     0.000000000  0.000000000  0.036149931

  length of vectors
    13.771350861  9.564481735 27.662570434     0.072614518  0.104553496  0.036149931


 
 k-points in units of 2pi/SCALE and weight: k-points                                
   0.00000000  0.00000000  0.00000000       0.111
   0.02420484  0.00000000  0.00000000       0.222
   0.00000000  0.03485117  0.00000000       0.222
   0.02420484  0.03485117  0.00000000       0.222
  -0.02420484  0.03485117  0.00000000       0.222
 
 k-points in reciprocal lattice and weights: k-points                                
   0.00000000  0.00000000  0.00000000       0.111
   0.33333333  0.00000000  0.00000000       0.222
   0.00000000  0.33333333  0.00000000       0.222
   0.33333333  0.33333333  0.00000000       0.222
  -0.33333333  0.33333333  0.00000000       0.222
 
 position of ions in fractional coordinates (direct lattice) 
   0.62276447  0.86746430  0.37590333
   0.61802978  0.39617622  0.54707090
   0.58902524  0.62494735  0.62293660
   0.61839700  0.08363760  0.44965952
   0.98063943  0.63531904  0.54910497
   0.97963780  0.12056648  0.37767599
   0.72857308  0.34338307  0.45816820
   0.72459806  0.84603763  0.63204232
   0.51739597  0.60805875  0.36719826
   0.51125177  0.13158811  0.54518897
   0.61811078  0.34297293  0.36889183
   0.62147812  0.86860837  0.54047604
   0.74231148  0.84345710  0.46199300
   0.74036696  0.38980234  0.63346026
   0.39405298  0.84738672  0.36896032
   0.38957114  0.37009726  0.54667174
   0.61928761  0.60162497  0.45752798
   0.62896016  0.11817539  0.63146675
   0.27944195  0.83362269  0.45088327
   0.27188219  0.34667063  0.62910220
   0.27140776  0.58376316  0.53446392
   0.28324246  0.07725573  0.36149931
   0.74198961  0.63383884  0.54695907
   0.74002355  0.11549973  0.36646499
   0.49591756  0.83582580  0.45790018
   0.49779716  0.36376648  0.63568137
   0.86626201  0.64993093  0.63170134
   0.84724605  0.11017048  0.45460239
   0.85243583  0.34907103  0.37639265
   0.86140044  0.87256999  0.55515213
   0.52175105  0.33942658  0.46105252
   0.52371893  0.88357467  0.62908210
   0.49708781  0.63123163  0.53577870
   0.49943882  0.10200214  0.36464270
   0.40016663  0.58028412  0.45130253
   0.39985664  0.09929525  0.63354368
   0.25505811  0.36595738  0.46399110
   0.23085446  0.91116274  0.63385321
   0.25182599  0.61397660  0.37627308
   0.25687485  0.13424730  0.54628870
   0.86539888  0.85904646  0.37036829
   0.86810538  0.37168337  0.54689461
   0.38059813  0.35186696  0.37331264
   0.37287295  0.86623930  0.54688309
   0.37729904  0.64369416  0.62984653
   0.38408008  0.10357511  0.45579618
   0.11657381  0.61110574  0.46457054
   0.09728233  0.15398879  0.62996129
   0.99629861  0.59295863  0.36811234
   0.99370633  0.10926713  0.53671296
   0.11869311  0.87196302  0.37467704
   0.11596923  0.38272238  0.55133728
   0.99977952  0.33051389  0.45306987
   0.02581512  0.85716580  0.64143660
   0.14482272  0.33176249  0.36788561
   0.13439862  0.84815737  0.54499308
   0.97888047  0.87608504  0.46520830
   0.96520448  0.40830707  0.64958525
   0.14285306  0.61050463  0.63019213
   0.14721048  0.09173214  0.45072276
   0.73135245  0.60578495  0.36679988
   0.73191554  0.12819390  0.53976339
   0.86923259  0.59196168  0.45825814
   0.85787202  0.11697148  0.63620107
   0.37767920  0.87848934  0.63198685
   0.97887887  0.20503869  0.67413316
   0.25215215  0.12150867  0.63306216
   0.00082149  0.63198667  0.66183543
   0.26930072  0.52832281  0.66503047
   0.38948648  0.28308092  0.66818820
   0.73643564  0.02587669  0.67124692
   0.51346625  0.05269108  0.67159542
   0.15873056  0.79635367  0.67643008
   0.62264273  0.31145655  0.66538545
   0.49718616  0.54738217  0.66329895
   0.83542845  0.48919070  0.67647023
   0.87377384  0.87155672  0.63426659
   0.60673208  0.77358287  0.66762530
   0.72207484  0.62023928  0.62394908
   0.25215502  0.73400652  0.58704326
 
 position of ions in cartesian coordinates  (Angst):
   8.57630799  8.29684649 10.39845223
   8.51110489  3.78922017 15.13338729
   8.11167319  5.97729748 17.23202771
   8.51616202  0.79995025 12.43873821
  13.50472962  6.07649738 15.18965497
  13.49093588  1.15315590 10.44748880
  10.03343557  3.28428114 12.67411000
   9.97869413  8.09191145 17.48391507
   7.12524148  5.81576681 10.15764776
   7.04062745  1.25857204 15.08132826
   8.51222037  3.28035836 10.20449636
   8.55859325  8.30778893 14.95095658
  10.22263181  8.06723005 12.77991378
  10.19585317  3.72825734 17.52313904
   5.42664188  8.10481479 10.20639088
   5.36492079  3.53978844 15.12234540
   8.52842696  5.75423100 12.65640004
   8.66163105  1.13028632 17.46799343
   3.84829318  7.97316903 12.47259035
   3.74418497  3.31572487 17.40258393
   3.73765145  5.58339207 14.78464592
   3.90063135  0.73891098 10.00000000
  10.21819924  6.06233997 15.13029390
  10.19112400  1.10469510 10.13736353
   6.82945470  7.99424061 12.66669595
   6.85533936  3.47923783 17.58458058
  11.92959814  6.21625249 17.47448274
  11.66772263  1.05372358 12.57547056
  11.73919286  3.33868345 10.41198829
  11.86264762  8.34567977 15.35693491
   7.18521672  3.24643930 12.75389771
   7.21231713  8.45093375 17.40202801
   6.84557066  6.03740339 14.82101600
   6.87794726  0.97559764 10.08695433
   5.51083508  5.55011685 12.48418803
   5.50656606  0.94970764 17.52544657
   3.51249472  3.50019267 12.83518635
   3.17917777  8.71479939 17.53400907
   3.46798404  5.87236796 10.40868071
   3.53751373  1.28400587 15.11174954
  11.91771166  8.21633417 10.24533883
  11.95498377  3.55495881 15.12851077
   5.24135036  3.36542512 10.32678719
   5.13496421  8.28512994 15.12819204
   5.19591740  6.15660101 17.42317388
   5.28930157  0.99064225 12.60849381
   1.60537885  5.84490969 12.85121538
   1.33970907  1.47282294 17.42634865
  13.72037774  5.67134198 10.18293350
  13.68467854  1.04508349 14.84686003
   1.63456451  8.33987442 10.36453009
   1.59705302  3.66054125 15.25140629
  13.76831459  3.16119411 12.53307716
   0.35550911  8.19834665 17.74378503
   1.99440444  3.17313630 10.17666150
   1.85085055  8.11218569 15.07590959
  13.48050634  8.37929939 12.86885734
  13.29216954  3.90524554 17.96919781
   1.96727956  5.83916036 17.43273410
   2.02728715  0.87737042 12.46815015
  10.07171117  5.79401911 10.14662739
  10.07946569  1.22610819 14.93124274
  11.97050705  5.66180669 12.67659812
  11.81405657  1.11877157 17.59895688
   5.20115276  8.40229529 17.48238062
  13.48048441  1.96108879 18.64825609
   3.47247570  1.16216747 17.51212667
   0.01131306  6.04462493 18.30806923
   3.70863465  5.05313386 18.39645228
   5.36375492  2.70752228 18.48380323
  10.14171357  0.24749715 18.56841507
   7.07112390  0.50396288 18.57805560
   2.18593428  7.61671009 18.71179463
   8.57463151  2.97892049 18.40627196
   6.84692512  5.23542679 18.34855392
  11.50497837  4.67885555 18.71290544
  12.03304611  8.33598834 17.54544434
   8.35552036  7.39891920 18.46823190
   9.94394592  5.93226722 17.26003549
   3.47251530  7.02039191 16.23912556
 


--------------------------------------------------------------------------------------------------------


 k-point  1 :   0.0000 0.0000 0.0000  plane waves:  121663
 k-point  2 :   0.3333 0.0000 0.0000  plane waves:  121577
 k-point  3 :   0.0000 0.3333 0.0000  plane waves:  121622
 k-point  4 :   0.3333 0.3333 0.0000  plane waves:  121647
 k-point  5 :  -0.3333 0.3333 0.0000  plane waves:  121647

 maximum and minimum number of plane-waves per node :      5107     5041

 maximum number of plane-waves:    121663
 maximum index in each direction: 
   IXMAX=   27   IYMAX=   19   IZMAX=   55
   IXMIN=  -27   IYMIN=  -19   IZMIN=  -55

 WARNING: aliasing errors must be expected set NGX to 110 to avoid them
 WARNING: aliasing errors must be expected set NGY to  78 to avoid them
 WARNING: aliasing errors must be expected set NGZ to 222 to avoid them
 aliasing errors are usually negligible using standard VASP settings
 and one can safely disregard these warnings

 parallel 3D FFT for wavefunctions:
    minimum data exchange during FFTs selected (reduces bandwidth)
 parallel 3D FFT for charge:
    minimum data exchange during FFTs selected (reduces bandwidth)


 total amount of memory used by VASP on root node   135042. kBytes
========================================================================

   base      :      30000. kBytes
   nonl-proj :      28414. kBytes
   fftplans  :       6516. kBytes
   grid      :      15878. kBytes
   one-center:         62. kBytes
   wavefun   :      54172. kBytes
 
     INWAV:  cpu time    0.0000: real time    0.0000
 Broyden mixing: mesh for mixing (old mesh)
   NGX = 55   NGY = 39   NGZ =111
  (NGX  =168   NGY  =120   NGZ  =336)
  gives a total of 238095 points

 initial charge density was supplied:
 charge density of overlapping atoms calculated
 number of electron     440.0000000 magnetization 
 keeping initial charge density in first step


--------------------------------------------------------------------------------------------------------


 Maximum index for augmentation-charges         1033 (set IRDMAX)


--------------------------------------------------------------------------------------------------------


 First call to EWALD:  gamma=   0.115
 Maximum number of real-space cells 3x 4x 2
 Maximum number of reciprocal cells 3x 2x 5

 FEWALD executed in parallel
    FEWALD:  cpu time    0.0030: real time    0.0030


----------------------------------------- Iteration    1(   1)  ---------------------------------------


    POTLOK:  cpu time    0.1144: real time    0.1202
    SETDIJ:  cpu time    0.0148: real time    0.0179
     EDDAV:  cpu time   20.1740: real time   20.2202
       DOS:  cpu time    0.0018: real time    0.0019
    --------------------------------------------
      LOOP:  cpu time   20.3067: real time   20.3795

 eigenvalue-minimisations  :  2768
 total energy-change (2. order) : 0.5564311E+04  (-0.1671461E+05)
 number of electron     440.0000000 magnetization 
 augmentation part      440.0000000 magnetization 

 Free energy of the ion-electron system (eV)
  ---------------------------------------------------
  alpha Z        PSCENC =       693.94989547
  Ewald energy   TEWEN  =    102931.68499907
  -Hartree energ DENC   =   -127239.03390063
  -exchange      EXHF   =         0.00000000
  -V(xc)+E(xc)   XCENC  =     -2641.65572679
  PAW double counting   =     24984.07275341   -20921.61770481
  entropy T*S    EENTRO =         0.00764896
  eigenvalues    EBANDS =       713.10844245
  atomic energy  EATOM  =     27043.79424741
  Solvation  Ediel_sol  =         0.00000000
  ---------------------------------------------------
  free energy    TOTEN  =      5564.31065455 eV

  energy without entropy =     5564.30300559  energy(sigma->0) =     5564.30874231


--------------------------------------------------------------------------------------------------------




----------------------------------------- Iteration    1(   2)  ---------------------------------------


     EDDAV:  cpu time   20.1641: real time   20.1708
       DOS:  cpu time    0.0016: real time    0.0016
    --------------------------------------------
      LOOP:  cpu time   20.1672: real time   20.1751

 eigenvalue-minimisations  :  2776
 total energy-change (2. order) :-0.4769893E+04  (-0.4633219E+04)
 number of electron     440.0000000 magnetization 
 augmentation part      440.0000000 magnetization 

 Free energy of the ion-electron system (eV)
  ---------------------------------------------------
  alpha Z        PSCENC =       693.94989547
  Ewald energy   TEWEN  =    102931.68499907
  -Hartree energ DENC   =   -127239.03390063
  -exchange      EXHF   =         0.00000000
  -V(xc)+E(xc)   XCENC  =     -2641.65572679
  PAW double counting   =     24984.07275341   -20921.61770481
  entropy T*S    EENTRO =        -0.00530104
  eigenvalues    EBANDS =     -4056.77131023
  atomic energy  EATOM  =     27043.79424741
  Solvation  Ediel_sol  =         0.00000000
  ---------------------------------------------------
  free energy    TOTEN  =       794.41795187 eV

  energy without entropy =      794.42325291  energy(sigma->0) =      794.41927713


--------------------------------------------------------------------------------------------------------




----------------------------------------- Iteration    1(   3)  ---------------------------------------


     EDDAV:  cpu time   31.7073: real time   31.7181
       DOS:  cpu time    0.0016: real time    0.0016
    --------------------------------------------
      LOOP:  cpu time   31.7103: real time   31.7225

 eigenvalue-minimisations  :  4824
 total energy-change (2. order) :-0.1338052E+04  (-0.1296930E+04)
 number of electron     440.0000000 magnetization 
 augmentation part      440.0000000 magnetization 

 Free energy of the ion-electron system (eV)
  ---------------------------------------------------
  alpha Z        PSCENC =       693.94989547
  Ewald energy   TEWEN  =    102931.68499907
  -Hartree energ DENC   =   -127239.03390063
  -exchange      EXHF   =         0.00000000
  -V(xc)+E(xc)   XCENC  =     -2641.65572679
  PAW double counting   =     24984.07275341   -20921.61770481
  entropy T*S    EENTRO =         0.00883369
  eigenvalues    EBANDS =     -5394.83783246
  atomic energy  EATOM  =     27043.79424741
  Solvation  Ediel_sol  =         0.00000000
  ---------------------------------------------------
  free energy    TOTEN  =      -543.63443563 eV

  energy without entropy =     -543.64326932  energy(sigma->0) =     -543.63664406


--------------------------------------------------------------------------------------------------------




----------------------------------------- Iteration    1(   4)  ---------------------------------------


     EDDAV:  cpu time   27.1822: real time   27.1924
       DOS:  cpu time    0.0016: real time    0.0016
    --------------------------------------------
      LOOP:  cpu time   27.1852: real time   27.1969

 eigenvalue-minimisations  :  4024
 total energy-change (2. order) :-0.2038257E+03  (-0.1977801E+03)
 number of electron     440.0000000 magnetization 
 augmentation part      440.0000000 magnetization 

 Free energy of the ion-electron system (eV)
  ---------------------------------------------------
  alpha Z        PSCENC =       693.94989547
  Ewald energy   TEWEN  =    102931.68499907
  -Hartree energ DENC   =   -127239.03390063
  -exchange      EXHF   =         0.00000000
  -V(xc)+E(xc)   XCENC  =     -2641.65572679
  PAW double counting   =     24984.07275341   -20921.61770481
  entropy T*S    EENTRO =        -0.00036622
  eigenvalues    EBANDS =     -5598.65432069
  atomic energy  EATOM  =     27043.79424741
  Solvation  Ediel_sol  =         0.00000000
  ---------------------------------------------------
  free energy    TOTEN  =      -747.46012377 eV

  energy without entropy =     -747.45975755  energy(sigma->0) =     -747.46003221


--------------------------------------------------------------------------------------------------------




----------------------------------------- Iteration    1(   5)  ---------------------------------------


     EDDAV:  cpu time   32.5170: real time   32.5273
       DOS:  cpu time    0.0017: real time    0.0017
    CHARGE:  cpu time    0.3323: real time    0.3330
    MIXING:  cpu time    0.0071: real time    0.0084
    --------------------------------------------
      LOOP:  cpu time   32.8601: real time   32.8746

 eigenvalue-minimisations  :  4944
 total energy-change (2. order) :-0.1825830E+02  (-0.1782822E+02)
 number of electron     440.0000135 magnetization 
 augmentation part       52.7056373 magnetization 

 Broyden mixing:
  rms(total) = 0.80574E+01    rms(broyden)= 0.80573E+01
  rms(prec ) = 0.85101E+01
  weight for this iteration     100.00

 Free energy of the ion-electron system (eV)
  ---------------------------------------------------
  alpha Z        PSCENC =       693.94989547
  Ewald energy   TEWEN  =    102931.68499907
  -Hartree energ DENC   =   -127239.03390063
  -exchange      EXHF   =         0.00000000
  -V(xc)+E(xc)   XCENC  =     -2641.65572679
  PAW double counting   =     24984.07275341   -20921.61770481
  entropy T*S    EENTRO =         0.00301438
  eigenvalues    EBANDS =     -5616.91599687
  atomic energy  EATOM  =     27043.79424741
  Solvation  Ediel_sol  =         0.00000000
  ---------------------------------------------------
  free energy    TOTEN  =      -765.71841935 eV

  energy without entropy =     -765.72143373  energy(sigma->0) =     -765.71917295


--------------------------------------------------------------------------------------------------------




----------------------------------------- Iteration    1(   6)  ---------------------------------------


    POTLOK:  cpu time    0.1000: real time    0.1000
    SETDIJ:  cpu time    0.0092: real time    0.0092
    EDDIAG:  cpu time    1.2916: real time    1.2928
  RMM-DIIS:  cpu time   23.3436: real time   23.3515
    ORTHCH:  cpu time    0.3303: real time    0.3306
       DOS:  cpu time    0.0015: real time    0.0015
    CHARGE:  cpu time    0.3270: real time    0.3270
    MIXING:  cpu time    0.0052: real time    0.0079
    --------------------------------------------
      LOOP:  cpu time   25.4102: real time   25.4310

 eigenvalue-minimisations  :  4396
 total energy-change (2. order) :-0.4069247E+02  (-0.1622758E+03)
 number of electron     440.0000088 magnetization 
 augmentation part       66.6108538 magnetization 

 Broyden mixing:
  rms(total) = 0.48801E+01    rms(broyden)= 0.48799E+01
  rms(prec ) = 0.65060E+01
  weight for this iteration     100.00

 eigenvalues of (default mixing * dielectric matrix)
  average eigenvalue GAMMA=   0.7987
  0.7987

 Free energy of the ion-electron system (eV)
  ---------------------------------------------------
  alpha Z        PSCENC =       693.94989547
  Ewald energy   TEWEN  =    102931.68499907
  -Hartree energ DENC   =   -128106.93849200
  -exchange      EXHF   =         0.00000000
  -V(xc)+E(xc)   XCENC  =     -2608.53868016
  PAW double counting   =     29617.50677658   -25564.58117374
  entropy T*S    EENTRO =        -0.00056983
  eigenvalues    EBANDS =     -4813.28789413
  atomic energy  EATOM  =     27043.79424741
  Solvation  Ediel_sol  =         0.00000000
  ---------------------------------------------------
  free energy    TOTEN  =      -806.41089132 eV

  energy without entropy =     -806.41032149  energy(sigma->0) =     -806.41074886


--------------------------------------------------------------------------------------------------------




----------------------------------------- Iteration    1(   7)  ---------------------------------------


    POTLOK:  cpu time    0.0963: real time    0.0963
    SETDIJ:  cpu time    0.0088: real time    0.0088
    EDDIAG:  cpu time    1.2813: real time    1.2817
  RMM-DIIS:  cpu time   21.3500: real time   21.3570
    ORTHCH:  cpu time    0.3286: real time    0.3286
       DOS:  cpu time    0.0015: real time    0.0015
    CHARGE:  cpu time    0.3287: real time    0.3287
    MIXING:  cpu time    0.0038: real time    0.0042
    --------------------------------------------
      LOOP:  cpu time   23.4006: real time   23.4149

 eigenvalue-minimisations  :  3983
 total energy-change (2. order) : 0.1609395E+02  (-0.4069852E+02)
 number of electron     440.0000102 magnetization 
 augmentation part       63.8796334 magnetization 

 Broyden mixing:
  rms(total) = 0.43503E+01    rms(broyden)= 0.43503E+01
  rms(prec ) = 0.75949E+01
  weight for this iteration     100.00

 eigenvalues of (default mixing * dielectric matrix)
  average eigenvalue GAMMA=   0.7005
  1.0444  0.3566

 Free energy of the ion-electron system (eV)
  ---------------------------------------------------
  alpha Z        PSCENC =       693.94989547
  Ewald energy   TEWEN  =    102931.68499907
  -Hartree energ DENC   =   -127470.46755251
  -exchange      EXHF   =         0.00000000
  -V(xc)+E(xc)   XCENC  =     -2612.81785453
  PAW double counting   =     30479.01201973   -26437.67412104
  entropy T*S    EENTRO =        -0.00322914
  eigenvalues    EBANDS =     -5417.79534199
  atomic energy  EATOM  =     27043.79424741
  Solvation  Ediel_sol  =         0.00000000
  ---------------------------------------------------
  free energy    TOTEN  =      -790.31693753 eV

  energy without entropy =     -790.31370838  energy(sigma->0) =     -790.31613024


--------------------------------------------------------------------------------------------------------




----------------------------------------- Iteration    1(   8)  ---------------------------------------


    POTLOK:  cpu time    0.0960: real time    0.0963
    SETDIJ:  cpu time    0.0089: real time    0.0089
    EDDIAG:  cpu time    1.2958: real time    1.2962
  RMM-DIIS:  cpu time   22.8715: real time   22.8789
    ORTHCH:  cpu time    0.3293: real time    0.3293
       DOS:  cpu time    0.0017: real time    0.0017
    CHARGE:  cpu time    0.3288: real time    0.3288
    MIXING:  cpu time    0.0038: real time    0.0038
    --------------------------------------------
      LOOP:  cpu time   24.9371: real time   24.9518

 eigenvalue-minimisations  :  4304
 total energy-change (2. order) : 0.7823049E+02  (-0.2190928E+02)
 number of electron     440.0000102 magnetization 
 augmentation part       54.4009627 magnetization 

 Broyden mixing:
  rms(total) = 0.34276E+01    rms(broyden)= 0.34276E+01
  rms(prec ) = 0.48907E+01
  weight for this iteration     100.00

 eigenvalues of (default mixing * dielectric matrix)
  average eigenvalue GAMMA=   0.6702
  1.3375  0.4426  0.2304

 Free energy of the ion-electron system (eV)
  ---------------------------------------------------
  alpha Z        PSCENC =       693.94989547
  Ewald energy   TEWEN  =    102931.68499907
  -Hartree energ DENC   =   -127831.80028736
  -exchange      EXHF   =         0.00000000
  -V(xc)+E(xc)   XCENC  =     -2614.32140790
  PAW double counting   =     31500.12263284   -27463.05324678
  entropy T*S    EENTRO =         0.00378727
  eigenvalues    EBANDS =     -4972.46706767
  atomic energy  EATOM  =     27043.79424741
  Solvation  Ediel_sol  =         0.00000000
  ---------------------------------------------------
  free energy    TOTEN  =      -712.08644765 eV

  energy without entropy =     -712.09023491  energy(sigma->0) =     -712.08739446


--------------------------------------------------------------------------------------------------------




----------------------------------------- Iteration    1(   9)  ---------------------------------------


    POTLOK:  cpu time    0.0960: real time    0.0962
    SETDIJ:  cpu time    0.0101: real time    0.0101
    EDDIAG:  cpu time    1.3074: real time    1.3077
  RMM-DIIS:  cpu time   19.2427: real time   19.2488
    ORTHCH:  cpu time    0.3297: real time    0.3297
       DOS:  cpu time    0.0017: real time    0.0017
    CHARGE:  cpu time    0.3301: real time    0.3304
    MIXING:  cpu time    0.0040: real time    0.0048
    --------------------------------------------
      LOOP:  cpu time   21.3233: real time   21.3371

 eigenvalue-minimisations  :  3605
 total energy-change (2. order) : 0.3845343E+02  (-0.6417014E+01)
 number of electron     440.0000105 magnetization 
 augmentation part       56.0619580 magnetization 

 Broyden mixing:
  rms(total) = 0.19277E+01    rms(broyden)= 0.19277E+01
  rms(prec ) = 0.21790E+01
  weight for this iteration     100.00

 eigenvalues of (default mixing * dielectric matrix)
  average eigenvalue GAMMA=   0.7503
  1.7130  0.5359  0.5359  0.2165

 Free energy of the ion-electron system (eV)
  ---------------------------------------------------
  alpha Z        PSCENC =       693.94989547
  Ewald energy   TEWEN  =    102931.68499907
  -Hartree energ DENC   =   -127787.33639599
  -exchange      EXHF   =         0.00000000
  -V(xc)+E(xc)   XCENC  =     -2611.17029386
  PAW double counting   =     32616.34510172   -28572.35988797
  entropy T*S    EENTRO =         0.00434273
  eigenvalues    EBANDS =     -4988.54502201
  atomic energy  EATOM  =     27043.79424741
  Solvation  Ediel_sol  =         0.00000000
  ---------------------------------------------------
  free energy    TOTEN  =      -673.63301343 eV

  energy without entropy =     -673.63735616  energy(sigma->0) =     -673.63409911


--------------------------------------------------------------------------------------------------------




----------------------------------------- Iteration    1(  10)  ---------------------------------------


    POTLOK:  cpu time    0.0964: real time    0.0964
    SETDIJ:  cpu time    0.0089: real time    0.0089
    EDDIAG:  cpu time    1.3025: real time    1.3028
  RMM-DIIS:  cpu time   21.6228: real time   21.6299
    ORTHCH:  cpu time    0.3289: real time    0.3290
       DOS:  cpu time    0.0017: real time    0.0017
    CHARGE:  cpu time    0.3274: real time    0.3274
    MIXING:  cpu time    0.0042: real time    0.0042
    --------------------------------------------
      LOOP:  cpu time   23.6941: real time   23.7088

 eigenvalue-minimisations  :  4051
 total energy-change (2. order) : 0.2808861E+01  (-0.6114377E+01)
 number of electron     440.0000102 magnetization 
 augmentation part       60.3224321 magnetization 

 Broyden mixing:
  rms(total) = 0.12991E+01    rms(broyden)= 0.12991E+01
  rms(prec ) = 0.17550E+01
  weight for this iteration     100.00

 eigenvalues of (default mixing * dielectric matrix)
  average eigenvalue GAMMA=   0.7448
  1.9414  0.6184  0.6184  0.3402  0.2056

 Free energy of the ion-electron system (eV)
  ---------------------------------------------------
  alpha Z        PSCENC =       693.94989547
  Ewald energy   TEWEN  =    102931.68499907
  -Hartree energ DENC   =   -127898.01191512
  -exchange      EXHF   =         0.00000000
  -V(xc)+E(xc)   XCENC  =     -2605.49929671
  PAW double counting   =     33638.47074722   -29586.99984632
  entropy T*S    EENTRO =         0.00498497
  eigenvalues    EBANDS =     -4888.21796801
  atomic energy  EATOM  =     27043.79424741
  Solvation  Ediel_sol  =         0.00000000
  ---------------------------------------------------
  free energy    TOTEN  =      -670.82415200 eV

  energy without entropy =     -670.82913698  energy(sigma->0) =     -670.82539825


--------------------------------------------------------------------------------------------------------




----------------------------------------- Iteration    1(  11)  ---------------------------------------


    POTLOK:  cpu time    0.0960: real time    0.0963
    SETDIJ:  cpu time    0.0088: real time    0.0088
    EDDIAG:  cpu time    1.3047: real time    1.3051
  RMM-DIIS:  cpu time   22.7819: real time   22.7892
    ORTHCH:  cpu time    0.3275: real time    0.3275
       DOS:  cpu time    0.0017: real time    0.0017
    CHARGE:  cpu time    0.3272: real time    0.3273
    MIXING:  cpu time    0.0043: real time    0.0043
    --------------------------------------------
      LOOP:  cpu time   24.8537: real time   24.8677

 eigenvalue-minimisations  :  4249
 total energy-change (2. order) : 0.2349815E+01  (-0.3005558E+01)
 number of electron     440.0000103 magnetization 
 augmentation part       60.3354611 magnetization 

 Broyden mixing:
  rms(total) = 0.99243E+00    rms(broyden)= 0.99243E+00
  rms(prec ) = 0.12498E+01
  weight for this iteration     100.00

 eigenvalues of (default mixing * dielectric matrix)
  average eigenvalue GAMMA=   0.7021
  1.9527  0.8120  0.4816  0.4816  0.2048  0.2796

 Free energy of the ion-electron system (eV)
  ---------------------------------------------------
  alpha Z        PSCENC =       693.94989547
  Ewald energy   TEWEN  =    102931.68499907
  -Hartree energ DENC   =   -127938.53941529
  -exchange      EXHF   =         0.00000000
  -V(xc)+E(xc)   XCENC  =     -2603.38931711
  PAW double counting   =     34411.87138493   -30358.19118302
  entropy T*S    EENTRO =        -0.00602648
  eigenvalues    EBANDS =     -4849.64892233
  atomic energy  EATOM  =     27043.79424741
  Solvation  Ediel_sol  =         0.00000000
  ---------------------------------------------------
  free energy    TOTEN  =      -668.47433734 eV

  energy without entropy =     -668.46831087  energy(sigma->0) =     -668.47283072


--------------------------------------------------------------------------------------------------------




----------------------------------------- Iteration    1(  12)  ---------------------------------------


    POTLOK:  cpu time    0.0967: real time    0.0967
    SETDIJ:  cpu time    0.0089: real time    0.0089
    EDDIAG:  cpu time    1.3076: real time    1.3082
  RMM-DIIS:  cpu time   19.3827: real time   19.3889
    ORTHCH:  cpu time    0.3289: real time    0.3289
       DOS:  cpu time    0.0016: real time    0.0016
    CHARGE:  cpu time    0.3286: real time    0.3289
    MIXING:  cpu time    0.0045: real time    0.0045
    --------------------------------------------
      LOOP:  cpu time   21.4611: real time   21.4748

 eigenvalue-minimisations  :  3638
 total energy-change (2. order) : 0.2195300E+01  (-0.9269568E+00)
 number of electron     440.0000101 magnetization 
 augmentation part       60.1858057 magnetization 

 Broyden mixing:
[...]
     0.000000000  9.564481735  0.000000000     0.000000000  0.104553496  0.000000000
     0.000000000  0.000000000 27.662570434     0.000000000  0.000000000  0.036149931

  length of vectors
    13.771350861  9.564481735 27.662570434     0.072614518  0.104553496  0.036149931


 FORCES acting on ions
    electron-ion (+dipol)            ewald-force                    non-local-force                 convergence-correction
 -----------------------------------------------------------------------------------------------
   -.478E+02 -.351E+02 0.452E+03   0.476E+02 0.349E+02 -.451E+03   0.113E+00 0.865E-01 -.854E+00   -.879E-03 -.209E-04 0.181E-03
   -.216E+02 -.170E+02 0.526E+01   0.213E+02 0.171E+02 -.617E+01   0.268E+00 -.134E+00 0.913E+00   -.218E-03 -.524E-03 -.276E-02
   0.683E+02 0.453E+02 -.210E+03   -.705E+02 -.427E+02 0.208E+03   0.221E+01 -.254E+01 0.128E+01   0.337E-03 0.760E-03 -.135E-02
   0.294E+01 0.429E+01 0.285E+03   -.280E+01 -.410E+01 -.285E+03   -.172E+00 -.273E+00 -.314E+00   -.659E-03 0.245E-04 -.813E-03
   -.620E+02 0.172E+02 0.305E+02   0.616E+02 -.167E+02 -.311E+02   0.443E+00 -.448E+00 0.632E+00   0.101E-02 -.400E-03 -.219E-02
   -.449E+02 0.420E+01 0.397E+03   0.442E+02 -.360E+01 -.394E+03   0.691E+00 -.995E+00 -.225E+01   0.165E-03 0.715E-03 0.175E-03
   -.378E+03 0.650E+01 0.874E+03   0.377E+03 -.584E+01 -.875E+03   0.252E+00 -.214E+00 0.108E+01   0.818E-03 0.108E-02 -.114E-01
   -.252E+03 -.663E+02 -.124E+04   0.250E+03 0.684E+02 0.124E+04   0.242E+01 -.204E+01 0.134E+01   -.234E-02 0.271E-02 -.638E-02
   0.953E+02 -.653E+01 0.194E+04   -.949E+02 0.538E+01 -.193E+04   -.557E+00 0.630E+00 -.437E+01   0.217E-02 0.101E-03 -.252E-02
   0.153E+03 -.147E+02 0.118E+03   -.154E+03 0.145E+02 -.116E+03   0.503E+00 0.205E+00 -.152E+01   -.101E-02 -.185E-02 -.136E-01
   -.563E+02 0.142E+03 0.200E+04   0.571E+02 -.141E+03 -.200E+04   -.524E+00 -.429E+00 -.271E+01   0.224E-02 -.179E-03 -.676E-03
   0.549E+02 0.350E+02 0.166E+03   -.545E+02 -.354E+02 -.166E+03   -.426E+00 0.469E+00 -.302E+00   -.310E-03 0.231E-02 -.997E-02
   -.410E+03 -.169E+02 0.116E+04   0.411E+03 0.158E+02 -.116E+04   -.617E+00 0.127E+01 -.133E+01   -.393E-02 -.185E-03 -.532E-02
   -.275E+03 0.198E+03 -.107E+04   0.276E+03 -.200E+03 0.107E+04   -.148E+01 0.173E+01 0.363E+00   0.268E-02 -.256E-02 -.460E-02
   0.291E+03 -.120E+03 0.185E+04   -.290E+03 0.120E+03 -.184E+04   0.250E+00 -.379E+00 -.427E+01   0.253E-02 0.759E-02 -.303E-02
   0.341E+03 -.971E+02 0.873E+02   -.342E+03 0.968E+02 -.871E+02   0.510E+00 0.286E+00 -.239E+00   -.332E-02 -.202E-02 -.745E-02
   -.198E+02 0.509E+01 0.353E+03   0.194E+02 -.497E+01 -.353E+03   0.707E+00 -.178E+00 0.165E+00   0.931E-03 -.145E-03 -.262E-02
   -.380E+02 -.471E+02 -.442E+03   0.375E+02 0.465E+02 0.442E+03   0.442E+00 0.691E+00 0.692E+00   0.204E-02 -.113E-02 -.282E-02
   0.172E+03 -.115E+02 0.347E+03   -.171E+03 0.115E+02 -.348E+03   -.145E+01 0.489E+00 0.614E+00   0.143E-02 0.253E-02 -.209E-02
   0.205E+03 -.534E+01 -.431E+03   -.204E+03 0.712E+01 0.429E+03   -.103E+01 -.181E+01 0.245E+01   -.120E-02 0.125E-02 -.380E-02
   0.126E+03 -.134E+01 0.107E+03   -.125E+03 0.517E+00 -.108E+03   -.443E+00 0.824E+00 0.988E+00   0.262E-03 -.112E-02 -.886E-03
   0.116E+03 -.564E+02 0.562E+03   -.115E+03 0.565E+02 -.559E+03   -.844E+00 -.224E+00 -.266E+01   0.209E-02 -.427E-04 0.344E-03
   -.119E+03 0.729E+02 0.768E+02   0.119E+03 -.720E+02 -.783E+02   -.626E-01 -.912E+00 0.158E+01   -.998E-03 0.674E-03 -.319E-02
   -.995E+02 0.595E+02 0.614E+03   0.988E+02 -.590E+02 -.611E+03   0.440E+00 -.527E+00 -.292E+01   -.103E-02 0.149E-02 0.337E-03
   0.703E+02 -.219E+02 0.300E+03   -.713E+02 0.212E+02 -.299E+03   0.970E+00 0.971E+00 -.747E+00   0.536E-03 0.143E-02 -.176E-02
   0.379E+02 -.146E+02 -.377E+03   -.386E+02 0.147E+02 0.377E+03   0.685E+00 -.668E-01 0.351E+00   -.837E-03 0.956E-03 -.239E-02
   -.168E+03 0.128E+02 -.314E+03   0.168E+03 -.142E+02 0.313E+03   -.378E+00 0.141E+01 0.130E+01   -.454E-03 0.233E-03 -.119E-02
   -.158E+03 0.506E+01 0.318E+03   0.158E+03 -.487E+01 -.319E+03   0.219E+00 -.368E+00 0.610E-01   0.216E-04 0.113E-02 -.131E-02
   -.149E+03 -.501E+01 0.575E+03   0.148E+03 0.498E+01 -.572E+03   0.771E+00 -.487E-01 -.251E+01   -.746E-03 0.785E-03 0.748E-03
   -.187E+03 -.300E+02 0.461E+02   0.186E+03 0.301E+02 -.475E+02   0.125E+01 -.159E-01 0.137E+01   -.550E-03 0.837E-03 -.248E-02
   0.817E+02 0.979E+01 0.301E+03   -.819E+02 -.933E+01 -.301E+03   0.765E-01 -.130E+00 -.151E+00   0.442E-03 -.101E-02 -.207E-02
   0.104E+03 0.258E+02 -.365E+03   -.103E+03 -.250E+02 0.364E+03   -.941E+00 -.721E+00 0.898E+00   0.189E-02 -.107E-02 -.282E-02
   0.684E+02 0.142E+02 0.436E+02   -.686E+02 -.138E+02 -.438E+02   0.146E+00 -.319E+00 0.198E+00   -.832E-04 0.451E-03 -.245E-02
   0.336E+02 -.177E+01 0.593E+03   -.343E+02 0.171E+01 -.590E+03   0.677E+00 0.166E-01 -.243E+01   -.101E-02 -.777E-04 -.102E-03
   0.126E+03 0.164E+02 0.298E+03   -.125E+03 -.166E+02 -.298E+03   -.793E+00 0.656E+00 -.346E+00   0.120E-02 -.351E-03 -.859E-03
   0.101E+03 0.117E+02 -.389E+03   -.994E+02 -.102E+02 0.387E+03   -.160E+01 -.151E+01 0.133E+01   -.547E-03 0.833E-03 -.284E-02
   0.124E+03 0.135E+02 0.320E+03   -.124E+03 -.133E+02 -.319E+03   0.188E+00 -.436E+00 -.841E+00   0.439E-03 -.173E-02 -.101E-02
   0.972E+02 -.440E+02 -.375E+03   -.989E+02 0.441E+02 0.374E+03   0.174E+01 -.476E-01 0.107E+01   -.103E-02 -.835E-03 -.245E-02
   0.126E+03 0.404E+02 0.528E+03   -.126E+03 -.402E+02 -.525E+03   0.166E+00 -.495E+00 -.274E+01   0.813E-03 0.217E-03 -.102E-02
   0.147E+03 0.248E+02 0.634E+02   -.147E+03 -.241E+02 -.638E+02   -.305E+00 -.757E+00 0.404E+00   0.791E-04 0.990E-03 -.317E-02
   -.975E+02 -.162E+01 0.582E+03   0.977E+02 0.163E+01 -.578E+03   -.412E+00 -.213E-01 -.300E+01   -.335E-03 -.722E-03 0.312E-03
   -.152E+03 0.163E+02 0.272E+02   0.152E+03 -.163E+02 -.269E+02   0.373E+00 -.415E-03 -.305E+00   0.609E-03 -.682E-03 -.305E-02
   0.128E+03 0.298E+02 0.551E+03   -.128E+03 -.301E+02 -.548E+03   -.272E+00 0.345E+00 -.250E+01   0.943E-03 -.187E-02 -.577E-03
   0.106E+03 -.155E+00 0.625E+02   -.105E+03 0.884E+00 -.636E+02   -.973E+00 -.732E+00 0.117E+01   0.599E-03 0.288E-03 -.350E-02
   0.514E+02 -.493E+01 -.373E+03   -.508E+02 0.272E+01 0.371E+03   -.606E+00 0.221E+01 0.159E+01   -.580E-03 -.817E-03 -.207E-02
   0.117E+03 -.101E+02 0.333E+03   -.118E+03 0.982E+01 -.333E+03   0.551E+00 0.354E+00 -.177E+00   0.576E-03 -.182E-04 -.187E-02
   0.434E+02 0.676E+01 0.284E+03   -.432E+02 -.674E+01 -.285E+03   -.325E+00 -.463E-01 0.212E-02   -.103E-02 -.453E-03 -.659E-03
   0.272E+02 -.743E+01 -.313E+03   -.278E+02 0.713E+01 0.312E+03   0.565E+00 0.294E+00 0.149E+01   0.378E-04 0.113E-02 -.251E-02
   -.396E+02 0.470E+00 0.535E+03   0.399E+02 -.853E-01 -.532E+03   -.725E-01 -.272E+00 -.278E+01   -.133E-02 -.802E-03 0.608E-04
   -.653E+02 -.154E+02 0.481E+02   0.652E+02 0.154E+02 -.480E+02   0.914E-02 0.149E-01 -.116E-01   0.645E-03 0.646E-03 -.257E-02
   0.527E+02 -.374E+01 0.519E+03   -.526E+02 0.305E+01 -.516E+03   -.147E-01 0.240E+00 -.308E+01   0.674E-04 0.936E-03 -.126E-03
   0.611E+02 0.113E+02 0.723E+01   -.604E+02 -.115E+02 -.663E+01   -.689E+00 0.211E+00 -.597E+00   0.246E-03 -.459E-03 -.182E-02
   -.676E+02 -.324E+01 0.303E+03   0.677E+02 0.333E+01 -.304E+03   0.161E-01 0.322E+00 -.473E-01   -.610E-03 -.288E-03 -.146E-02
   -.465E+02 -.712E+02 -.372E+03   0.478E+02 0.706E+02 0.370E+03   -.138E+01 0.643E+00 0.245E+01   0.474E-03 0.911E-04 -.176E-02
   0.409E+02 0.152E+01 0.530E+03   -.402E+02 -.142E+01 -.527E+03   -.844E+00 -.297E+00 -.326E+01   -.255E-03 -.103E-02 0.139E-03
   0.756E+02 -.307E+02 0.651E+02   -.755E+02 0.313E+02 -.649E+02   -.795E-01 -.552E+00 -.140E+00   -.224E-03 0.283E-03 -.238E-02
   -.915E+02 -.492E+00 0.286E+03   0.911E+02 0.287E+00 -.286E+03   0.437E+00 0.964E-01 -.573E+00   -.750E-04 0.360E-03 -.147E-02
   -.137E+03 0.385E+02 -.385E+03   0.135E+03 -.390E+02 0.383E+03   0.220E+01 0.556E+00 0.148E+01   0.754E-03 -.731E-03 -.145E-02
   0.646E+02 0.640E+02 -.302E+03   -.642E+02 -.638E+02 0.302E+03   -.428E+00 -.175E+00 -.689E-01   0.335E-03 -.939E-03 -.204E-02
   0.523E+02 -.904E+01 0.311E+03   -.516E+02 0.898E+01 -.312E+03   -.678E+00 0.310E+00 -.272E+00   0.232E-03 0.611E-03 -.116E-02
   -.141E+03 -.425E+02 0.611E+03   0.140E+03 0.419E+02 -.608E+03   0.846E+00 0.632E-01 -.326E+01   -.295E-04 -.108E-02 0.421E-03
   -.143E+03 -.445E+02 0.308E+02   0.143E+03 0.441E+02 -.304E+02   0.172E+00 0.386E+00 -.390E+00   -.702E-03 -.249E-03 -.300E-02
   -.155E+03 0.762E+01 0.308E+03   0.154E+03 -.777E+01 -.309E+03   0.596E+00 0.545E+00 0.220E+00   -.538E-03 -.976E-03 -.250E-02
   -.140E+03 -.433E+02 -.340E+03   0.139E+03 0.443E+02 0.338E+03   0.796E+00 -.101E+01 0.154E+01   -.359E-03 0.146E-03 -.160E-02
   0.124E+03 0.345E+02 -.626E+03   -.124E+03 -.355E+02 0.632E+03   0.784E+00 0.103E+01 -.566E+01   -.872E-03 -.425E-02 -.434E-02
   -.112E+03 0.238E+02 -.819E+03   0.112E+03 -.283E+02 0.834E+03   -.649E+00 0.454E+01 -.149E+02   0.221E-03 0.140E-02 -.161E-02
   0.197E+03 -.231E+01 -.586E+03   -.197E+03 0.138E+01 0.591E+03   0.591E+00 0.931E+00 -.528E+01   -.364E-02 0.477E-02 -.427E-02
   -.112E+03 0.289E+02 -.752E+03   0.112E+03 -.279E+02 0.764E+03   -.529E+00 -.955E+00 -.122E+02   0.374E-02 -.129E-02 -.798E-03
   0.118E+03 0.503E+01 -.855E+03   -.118E+03 -.216E+01 0.874E+03   -.438E+00 -.287E+01 -.193E+02   -.526E-03 -.157E-02 -.344E-02
   0.123E+03 -.113E+02 -.944E+03   -.122E+03 0.112E+02 0.965E+03   -.967E+00 0.787E-01 -.205E+02   -.565E-02 0.326E-02 0.567E-03
   -.137E+03 -.154E+03 -.102E+04   0.140E+03 0.155E+03 0.104E+04   -.248E+01 -.553E+00 -.211E+02   -.410E-03 -.340E-02 -.279E-02
   0.856E+02 -.311E+01 -.100E+04   -.875E+02 0.419E+01 0.102E+04   0.188E+01 -.109E+01 -.223E+02   0.402E-02 -.230E-03 0.229E-02
   0.402E+02 -.311E+02 -.905E+03   -.386E+02 0.278E+02 0.924E+03   -.166E+01 0.333E+01 -.194E+02   -.813E-03 -.249E-02 -.296E-03
   0.760E+02 0.302E+02 -.957E+03   -.788E+02 -.268E+02 0.976E+03   0.278E+01 -.339E+01 -.191E+02   0.563E-02 -.213E-03 0.147E-03
   0.101E+03 -.258E+02 -.886E+03   -.102E+03 0.274E+02 0.907E+03   0.102E+01 -.161E+01 -.209E+02   -.873E-03 0.395E-02 0.191E-04
   -.206E+03 -.236E+01 -.102E+04   0.203E+03 0.631E+01 0.104E+04   0.327E+01 -.395E+01 -.195E+02   -.153E-02 -.358E-02 0.503E-04
   -.338E+03 -.781E+02 -.580E+03   0.341E+03 0.823E+02 0.586E+03   -.262E+01 -.418E+01 -.588E+01   -.409E-02 0.238E-02 -.169E-02
   0.154E+03 0.666E+02 -.105E+04   -.156E+03 -.698E+02 0.107E+04   0.171E+01 0.311E+01 -.242E+02   0.498E-02 -.822E-04 -.165E-02
   -.635E+02 0.784E+02 -.471E+03   0.656E+02 -.812E+02 0.477E+03   -.206E+01 0.273E+01 -.560E+01   -.327E-02 0.222E-02 -.479E-03
   0.144E+03 0.780E+01 -.171E+03   -.144E+03 -.730E+01 0.170E+03   -.844E+00 -.499E+00 0.119E+01   -.729E-03 -.934E-03 -.412E-02
 -----------------------------------------------------------------------------------------------
   -.408E+01 0.614E+01 0.260E+03   -.369E-12 -.755E-13 0.622E-11   0.408E+01 -.615E+01 -.260E+03   -.137E-02 0.716E-02 -.173E+00
 
 
 POSITION                                       TOTAL-FORCE (eV/Angst)
 -----------------------------------------------------------------------------------
      8.57631      8.29685     10.39845        -0.063617     -0.156489      0.017070
      8.51110      3.78922     15.13339        -0.003268     -0.009069      0.000584
      8.11167      5.97730     17.23203         0.009616      0.002789     -0.001827
      8.51616      0.79995     12.43874        -0.037179     -0.081999     -0.011513
     13.50473      6.07650     15.18965         0.011057     -0.002600     -0.006880
     13.49094      1.15316     10.44749        -0.016361     -0.398336     -0.094758
     10.03344      3.28428     12.67411        -0.006301      0.447284     -0.446472
      9.97869      8.09191     17.48392         0.016518      0.007646      0.004667
      7.12524      5.81577     10.15765        -0.177499     -0.521458      0.853434
      7.04063      1.25857     15.08133         0.004665      0.000907     -0.000586
      8.51222      3.28036     10.20450         0.230009      0.033576      0.800997
      8.55859      8.30779     14.95096         0.006037     -0.001758     -0.000784
     10.22263      8.06723     12.77991         0.390120      0.227557     -0.006213
     10.19585      3.72826     17.52314         0.001591      0.007017      0.012609
      5.42664      8.10481     10.20639         0.291850      0.054426      0.906687
      5.36492      3.53979     15.12235         0.007851      0.002017      0.001174
      8.52843      5.75423     12.65640         0.271465     -0.049280      0.015120
      8.66163      1.13029     17.46799        -0.027868      0.008730     -0.015338
      3.84829      7.97317     12.47259        -0.550051      0.458312     -0.476501
      3.74418      3.31572     17.40258         0.024003     -0.022497     -0.001677
      3.73765      5.58339     14.78465        -0.005285      0.002623     -0.001199
      3.90063      0.73891     10.00000         0.462452     -0.160055      0.336278
     10.21820      6.06234     15.13029         0.002210      0.004185      0.002478
     10.19112      1.10470     10.13736        -0.219706     -0.021197      0.252358
      6.82945      7.99424     12.66670        -0.015696      0.275013     -0.383736
      6.85534      3.47924     17.58458        -0.002965     -0.007444     -0.002019
     11.92960      6.21625     17.47448        -0.006001      0.001057      0.000051
     11.66772      1.05372     12.57547        -0.392555     -0.176136     -0.617292
     11.73919      3.33868     10.41199        -0.232482     -0.075021      0.640021
     11.86265      8.34568     15.35693         0.002207     -0.002867     -0.000692
      7.18522      3.24644     12.75390        -0.133467      0.320580     -0.369611
      7.21232      8.45093     17.40203         0.005896     -0.000339     -0.007281
      6.84557      6.03740     14.82102        -0.005649     -0.001251     -0.000157
      6.87795      0.97560     10.08695        -0.036455     -0.042222      0.240902
      5.51084      5.55012     12.48419        -0.176195      0.436238     -0.478374
      5.50657      0.94971     17.52545         0.003624     -0.006260     -0.000425
      3.51249      3.50019     12.83519         0.093271     -0.244586     -0.384783
      3.17918      8.71480     17.53401         0.005618      0.005042     -0.006292
      3.46798      5.87237     10.40868         0.082049     -0.261710     -0.048800
      3.53751      1.28401     15.11175         0.003311      0.001270      0.001166
     11.91771      8.21633     10.24534        -0.224448     -0.008257      0.730880
     11.95498      3.55496     15.12851        -0.001749      0.001360     -0.001850
      5.24135      3.36543     10.32679         0.154598      0.071527      0.157787
      5.13496      8.28513     15.12819        -0.003414     -0.002031      0.000885
      5.19592      6.15660     17.42317        -0.001306     -0.000758      0.000804
      5.28930      0.99064     12.60849         0.318080      0.059710     -0.373838
      1.60538      5.84491     12.85122        -0.084294     -0.025695     -0.624000
      1.33971      1.47282     17.42635        -0.004152     -0.001666      0.000325
     13.72038      5.67134     10.18293         0.188967      0.112142      0.643166
     13.68468      1.04508     14.84686        -0.003235      0.002222      0.004254
      1.63456      8.33987     10.36453         0.058685     -0.442959      0.106848
      1.59705      3.66054     15.25141         0.000427     -0.002615      0.002089
     13.76831      3.16119     12.53308         0.055461      0.407147     -0.467266
      0.35551      8.19835     17.74379        -0.003476     -0.000175      0.000957
      1.99440      3.17314     10.17666        -0.135904     -0.190365      0.596841
      1.85085      8.11219     15.07591         0.001401     -0.000230      0.003396
     13.48051      8.37930     12.86886         0.036243     -0.108432     -0.739434
     13.29217      3.90525     17.96920        -0.002429      0.003742     -0.009094
      1.96728      5.83916     17.43273         0.000861      0.000381      0.003116
      2.02729      0.87737     12.46815         0.044161      0.254562     -0.540815
     10.07171      5.79402     10.14663         0.181623     -0.571934      0.218611
     10.07947      1.22611     14.93124         0.000990     -0.002459      0.001645
     11.97051      5.66181     12.67660        -0.498375      0.398678     -0.454520
     11.81406      1.11877     17.59896         0.001374     -0.000111      0.000020
      5.20115      8.40230     17.48238         0.001917     -0.002200      0.003199
     13.48048      1.96109     18.64826         0.007087      0.006303      0.000310
      3.47248      1.16217     17.51213         0.009941     -0.001388      0.001337
      0.01131      6.04462     18.30807         0.009981     -0.002147      0.007942
      3.70863      5.05313     18.39645         0.006709     -0.001018      0.001173
      5.36375      2.70752     18.48380         0.001045      0.000655      0.002040
     10.14171      0.24750     18.56842         0.001961      0.004169     -0.000218
      7.07112      0.50396     18.57806         0.005873     -0.000358     -0.002164
      2.18593      7.61671     18.71179         0.008449      0.003126      0.002710
      8.57463      2.97892     18.40627         0.011572     -0.006217      0.001798
      6.84693      5.23543     18.34855         0.003131     -0.004088      0.002945
     11.50498      4.67886     18.71291         0.009126     -0.001481     -0.002900
     12.03305      8.33599     17.54544         0.006886      0.002582      0.010275
      8.35552      7.39892     18.46823         0.008706     -0.003448     -0.001762
      9.94395      5.93227     17.26004         0.005277     -0.003144     -0.008008
      3.47252      7.02039     16.23913         0.005433      0.001174     -0.001872
 -----------------------------------------------------------------------------------
    total drift:                                0.003993     -0.000174      0.005041


--------------------------------------------------------------------------------------------------------



  FREE ENERGIE OF THE ION-ELECTRON SYSTEM (eV)
  ---------------------------------------------------
  free  energy   TOTEN  =      -665.51483914 eV

  energy  without entropy=     -665.50794080  energy(sigma->0) =     -665.51311455
 


--------------------------------------------------------------------------------------------------------


    POTLOK:  cpu time    0.1134: real time    0.1138


--------------------------------------------------------------------------------------------------------


     LOOP+:  cpu time  811.4929: real time  812.2126
    4ORBIT:  cpu time    0.0000: real time    0.0000

 total amount of memory used by VASP on root node   135042. kBytes
========================================================================

   base      :      30000. kBytes
   nonl-proj :      28414. kBytes
   fftplans  :       6516. kBytes
   grid      :      15878. kBytes
   one-center:         62. kBytes
   wavefun   :      54172. kBytes
 
  
  
 General timing and accounting informations for this job:
 ========================================================
  
                  Total CPU time used (sec):      829.369
                            User time (sec):      825.524
                          System time (sec):        3.845
                         Elapsed time (sec):      830.423
  
                   Maximum memory used (kb):      169948.
                   Average memory used (kb):           0.
  
                          Minor page faults:        51253
                          Major page faults:            0
                 Voluntary context switches:         2620
