 vasp.5.4.4.18Apr17-6-g9f103f2a35 (build Jan 21 2021 13:12:21) complex          
  
 executed on             LinuxIFC date 2021.10.31  23:17:50
 running on   30 total cores
 distrk:  each k-point on   30 cores,    1 groups
 distr:  one band on NCORES_PER_BAND=   1 cores,   30 groups


--------------------------------------------------------------------------------------------------------


 INCAR:
 POTCAR:    PAW_PBE Al 04Jan2001                  
 POTCAR:    PAW_PBE Nb_sv 25May2007               
 POTCAR:    PAW_PBE Ta 17Jan2003                  
 POTCAR:    PAW_PBE Ti 08Apr2002                  
 POTCAR:   PAW_PBE Zr 08Apr2002                   
 POTCAR:    PAW_PBE O 08Apr2002                   

 ----------------------------------------------------------------------------- 
|                                                                             |
|           W    W    AA    RRRRR   N    N  II  N    N   GGGG   !!!           |
|           W    W   A  A   R    R  NN   N  II  NN   N  G    G  !!!           |
|           W    W  A    A  R    R  N N  N  II  N N  N  G       !!!           |
|           W WW W  AAAAAA  RRRRR   N  N N  II  N  N N  G  GGG   !            |
|           WW  WW  A    A  R   R   N   NN  II  N   NN  G    G                |
|           W    W  A    A  R    R  N    N  II  N    N   GGGG   !!!           |
|                                                                             |
|      For optimal performance we recommend to set                            |
|        NCORE= 4 - approx SQRT( number of cores)                             |
|      NCORE specifies how many cores store one orbital (NPAR=cpu/NCORE).     |
|      This setting can  greatly improve the performance of VASP for DFT.     |
|      The default,   NCORE=1            might be grossly inefficient         |
|      on modern multi-core architectures or massively parallel machines.     |
|      Do your own testing !!!!                                               |
|      Unfortunately you need to use the default for GW and RPA calculations. |
|      (for HF NCORE is supported but not extensively tested yet)             |
|                                                                             |
 ----------------------------------------------------------------------------- 

 POTCAR:    PAW_PBE Al 04Jan2001                  
   VRHFIN =Al: s2p1                                                             
   LEXCH  = PE                                                                  
   EATOM  =    53.5387 eV,    3.9350 Ry                                         
                                                                                
   TITEL  = PAW_PBE Al 04Jan2001                                                
   LULTRA =        F    use ultrasoft PP ?                                      
   IUNSCR =        1    unscreen: 0-lin 1-nonlin 2-no                           
   RPACOR =    1.500    partial core radius                                     
   POMASS =   26.981; ZVAL   =    3.000    mass and valenz                      
   RCORE  =    1.900    outmost cutoff radius                                   
   RWIGS  =    2.650; RWIGS  =    1.402    wigner-seitz radius (au A)           
   ENMAX  =  240.300; ENMIN  =  180.225 eV                                      
   ICORE  =        2    local potential                                         
   LCOR   =        T    correct aug charges                                     
   LPAW   =        T    paw PP                                                  
   EAUG   =  291.052                                                            
   DEXC   =    0.000                                                            
   RMAX   =    1.939    core radius for proj-oper                               
   RAUG   =    1.300    factor for augmentation sphere                          
   RDEP   =    1.966    radius for radial grids                                 
   RDEPT  =    1.856    core radius for aug-charge                              
                                                                                
   Atomic configuration                                                         
    6 entries                                                                   
     n  l   j            E        occ.                                          
     1  0  0.50     -1511.1048   2.0000                                         
     2  0  0.50      -108.1629   2.0000                                         
     2  1  1.50       -69.6402   6.0000                                         
     3  0  0.50        -7.7528   2.0000                                         
     3  1  1.50        -2.7121   1.0000                                         
     3  2  2.50        -2.7212   0.0000                                         
   Description                                                                  
     l       E           TYP  RCUT    TYP  RCUT                                 
     0     -7.7528455     23  1.900                                             
     0     -3.3096929     23  1.900                                             
     1     -2.7120682     23  1.900                                             
     1     13.6058260     23  1.900                                             
     2     -2.7211652      7  1.900                                             
  local pseudopotential read in
  partial core-charges read in
  partial kinetic energy density read in
  atomic valenz-charges read in
  non local Contribution for L=           0  read in
    real space projection operators read in
  non local Contribution for L=           0  read in
    real space projection operators read in
  non local Contribution for L=           1  read in
    real space projection operators read in
  non local Contribution for L=           1  read in
    real space projection operators read in
    PAW grid and wavefunctions read in
 
   number of l-projection  operators is LMAX  =           4
   number of lm-projection operators is LMMAX =           8
 
 POTCAR:    PAW_PBE Nb_sv 25May2007               
   VRHFIN =Nb: 4p5s4d                                                           
   LEXCH  = PE                                                                  
   EATOM  =  1555.1913 eV,  114.3033 Ry                                         
                                                                                
   TITEL  = PAW_PBE Nb_sv 25May2007                                             
   LULTRA =        F    use ultrasoft PP ?                                      
   IUNSCR =        1    unscreen: 0-lin 1-nonlin 2-no                           
   RPACOR =    1.800    partial core radius                                     
   POMASS =   92.910; ZVAL   =   13.000    mass and valenz                      
   RCORE  =    2.400    outmost cutoff radius                                   
   RWIGS  =    2.400; RWIGS  =    1.270    wigner-seitz radius (au A)           
   ENMAX  =  293.235; ENMIN  =  219.927 eV                                      
   ICORE  =        3    local potential                                         
   LCOR   =        T    correct aug charges                                     
   LPAW   =        T    paw PP                                                  
   EAUG   =  455.659                                                            
   DEXC   =    0.000                                                            
   RMAX   =    2.456    core radius for proj-oper                               
   RAUG   =    1.300    factor for augmentation sphere                          
   RDEP   =    2.451    radius for radial grids                                 
   RDEPT  =    1.956    core radius for aug-charge                              
                                                                                
   Atomic configuration                                                         
   11 entries                                                                   
     n  l   j            E        occ.                                          
     1  0  0.50    -18805.2457   2.0000                                         
     2  0  0.50     -2630.2869   2.0000                                         
     2  1  1.50     -2348.4046   6.0000                                         
     3  0  0.50      -438.8757   2.0000                                         
     3  1  1.50      -346.7588   6.0000                                         
     3  2  2.50      -196.2560  10.0000                                         
     4  0  0.50       -58.3859   2.0000                                         
     5  0  0.50        -3.9816   1.0000                                         
     4  1  1.50       -34.5141   6.0000                                         
     4  2  2.50        -3.0408   4.0000                                         
     4  3  2.50        -1.3606   0.0000                                         
   Description                                                                  
     l       E           TYP  RCUT    TYP  RCUT                                 
     0    -58.3859094     23  2.200                                             
     0     -3.9816262     23  2.200                                             
     1    -34.5140738     23  2.200                                             
     1     13.6058260     23  2.200                                             
     2     -3.0408010     23  2.200                                             
     2     -0.1283038     23  2.200                                             
     3     -1.3605826     23  2.400                                             
  local pseudopotential read in
  partial core-charges read in
  partial kinetic energy density read in
  atomic valenz-charges read in
  non local Contribution for L=           0  read in
    real space projection operators read in
  non local Contribution for L=           0  read in
    real space projection operators read in
  non local Contribution for L=           1  read in
    real space projection operators read in
  non local Contribution for L=           1  read in
    real space projection operators read in
  non local Contribution for L=           2  read in
    real space projection operators read in
  non local Contribution for L=           2  read in
    real space projection operators read in
    PAW grid and wavefunctions read in
 
   number of l-projection  operators is LMAX  =           6
   number of lm-projection operators is LMMAX =          18
 
 POTCAR:    PAW_PBE Ta 17Jan2003                  
   VRHFIN =Ta:  6s5d                                                            
   LEXCH  = PE                                                                  
   EATOM  =   130.6506 eV,    9.6025 Ry                                         
                                                                                
   TITEL  = PAW_PBE Ta 17Jan2003                                                
   LULTRA =        F    use ultrasoft PP ?                                      
   IUNSCR =        1    unscreen: 0-lin 1-nonlin 2-no                           
   RPACOR =    2.330    partial core radius                                     
   POMASS =  180.948; ZVAL   =    5.000    mass and valenz                      
   RCORE  =    2.900    outmost cutoff radius                                   
   RWIGS  =    2.840; RWIGS  =    1.503    wigner-seitz radius (au A)           
   ENMAX  =  223.667; ENMIN  =  167.750 eV                                      
   RCLOC  =    2.205    cutoff for local pot                                    
   LCOR   =        T    correct aug charges                                     
   LPAW   =        T    paw PP                                                  
   EAUG   =  332.075                                                            
   DEXC   =    0.000                                                            
   RMAX   =    2.970    core radius for proj-oper                               
   RAUG   =    1.300    factor for augmentation sphere                          
   RDEP   =    3.060    radius for radial grids                                 
   RDEPT  =    2.354    core radius for aug-charge                              
                                                                                
   Atomic configuration                                                         
   16 entries                                                                   
     n  l   j            E        occ.                                          
     1  0  0.50    -67341.2807   2.0000                                         
     2  0  0.50    -11566.9376   2.0000                                         
     2  1  1.50    -10134.1182   6.0000                                         
     3  0  0.50     -2648.5620   2.0000                                         
     3  1  1.50     -2222.6012   6.0000                                         
     3  2  2.50     -1726.3120  10.0000                                         
     4  0  0.50      -538.6961   2.0000                                         
     4  1  1.50      -399.0129   6.0000                                         
     4  2  2.50      -220.3959  10.0000                                         
     4  3  3.50       -23.0374  14.0000                                         
     5  0  0.50       -71.2901   2.0000                                         
     5  1  1.50       -37.8225   6.0000                                         
     5  2  2.50        -2.6455   4.0000                                         
     6  0  0.50        -4.9623   1.0000                                         
     6  1  1.50        -1.3606   0.0000                                         
     5  3  2.50        -1.3606   0.0000                                         
   Description                                                                  
     l       E           TYP  RCUT    TYP  RCUT                                 
     2     -2.6455043     23  2.500                                             
     2     -0.6258895     23  2.500                                             
     0     -4.9622780     23  2.500                                             
     0      4.7531321     23  2.500                                             
     1     -1.3605826     23  2.900                                             
     1     27.2116520     23  2.900                                             
  local pseudopotential read in
  partial core-charges read in
  partial kinetic energy density read in
  atomic valenz-charges read in
  non local Contribution for L=           2  read in
    real space projection operators read in
  non local Contribution for L=           2  read in
    real space projection operators read in
  non local Contribution for L=           0  read in
    real space projection operators read in
  non local Contribution for L=           0  read in
    real space projection operators read in
  non local Contribution for L=           1  read in
    real space projection operators read in
  non local Contribution for L=           1  read in
    real space projection operators read in
    PAW grid and wavefunctions read in
 
   number of l-projection  operators is LMAX  =           6
   number of lm-projection operators is LMMAX =          18
 
 POTCAR:    PAW_PBE Ti 08Apr2002                  
   VRHFIN =Ti: d3 s1                                                            
   LEXCH  = PE                                                                  
   EATOM  =    94.7928 eV,    6.9671 Ry                                         
                                                                                
   TITEL  = PAW_PBE Ti 08Apr2002                                                
   LULTRA =        F    use ultrasoft PP ?                                      
   IUNSCR =        1    unscreen: 0-lin 1-nonlin 2-no                           
   RPACOR =    2.200    partial core radius                                     
   POMASS =   47.880; ZVAL   =    4.000    mass and valenz                      
   RCORE  =    2.800    outmost cutoff radius                                   
   RWIGS  =    2.500; RWIGS  =    1.323    wigner-seitz radius (au A)           
   ENMAX  =  178.330; ENMIN  =  133.747 eV                                      
   RCLOC  =    2.215    cutoff for local pot                                    
   LCOR   =        T    correct aug charges                                     
   LPAW   =        T    paw PP                                                  
   EAUG   =  328.883                                                            
   DEXC   =    0.000                                                            
   RMAX   =    2.868    core radius for proj-oper                               
   RAUG   =    1.300    factor for augmentation sphere                          
   RDEP   =    2.885    radius for radial grids                                 
   RDEPT  =    2.320    core radius for aug-charge                              
                                                                                
   Atomic configuration                                                         
    9 entries                                                                   
     n  l   j            E        occ.                                          
     1  0  0.50     -4865.3608   2.0000                                         
     2  0  0.50      -533.1367   2.0000                                         
     2  1  1.50      -440.5031   6.0000                                         
     3  0  0.50       -59.3186   2.0000                                         
     3  1  1.50       -35.7012   6.0000                                         
     3  2  2.50        -1.9157   3.0000                                         
     4  0  0.50        -3.7291   1.0000                                         
     4  1  1.50        -4.0817   0.0000                                         
     4  3  2.50        -1.3606   0.0000                                         
   Description                                                                  
     l       E           TYP  RCUT    TYP  RCUT                                 
     2     -1.9156924     23  2.800                                             
     2     -0.4062961     23  2.800                                             
     0     -3.7290832     23  2.800                                             
     0     20.4087390     23  2.800                                             
     1     -5.4423304     23  2.800                                             
  local pseudopotential read in
  partial core-charges read in
  partial kinetic energy density read in
  atomic valenz-charges read in
  non local Contribution for L=           2  read in
    real space projection operators read in
  non local Contribution for L=           2  read in
    real space projection operators read in
  non local Contribution for L=           0  read in
    real space projection operators read in
  non local Contribution for L=           0  read in
    real space projection operators read in
  non local Contribution for L=           1  read in
    real space projection operators read in
    PAW grid and wavefunctions read in
 
   number of l-projection  operators is LMAX  =           5
   number of lm-projection operators is LMMAX =          15
 
 POTCAR:   PAW_PBE Zr 08Apr2002                   
   VRHFIN =Zr: 5s4d5p                                                           
   LEXCH  = PE                                                                  
   EATOM  =    77.8472 eV,    5.7216 Ry                                         
                                                                                
   TITEL  = PAW_PBE Zr 08Apr2002                                                
   LULTRA =        F    use ultrasoft PP ?                                      
   IUNSCR =        1    unscreen: 0-lin 1-nonlin 2-no                           
   RPACOR =    2.200    partial core radius                                     
   POMASS =   91.224; ZVAL   =    4.000    mass and valenz                      
   RCORE  =    3.000    outmost cutoff radius                                   
   RWIGS  =    3.070; RWIGS  =    1.625    wigner-seitz radius (au A)           
   ENMAX  =  154.632; ENMIN  =  115.974 eV                                      
   RCLOC  =    2.213    cutoff for local pot                                    
   LCOR   =        T    correct aug charges                                     
   LPAW   =        T    paw PP                                                  
   EAUG   =  243.217                                                            
   DEXC   =    -.082                                                            
   RMAX   =    3.708    core radius for proj-oper                               
   RAUG   =    1.300    factor for augmentation sphere                          
   RDEP   =    3.146    radius for radial grids                                 
   QCUT   =   -3.371; QGAM   =    6.742    optimization parameters              
                                                                                
   Description                                                                  
     l     E      TYP  RCUT    TYP  RCUT                                        
     2   .000     23  3.000                                                     
     2   .000     23  3.000                                                     
     0   .000     23  3.000                                                     
     0  2.000     23  3.000                                                     
     1  -.400     23  3.000                                                     
     3   .000      7   .000                                                     
  local pseudopotential read in
  partial core-charges read in
  atomic valenz-charges read in
  non local Contribution for L=           2  read in
    real space projection operators read in
  non local Contribution for L=           2  read in
    real space projection operators read in
  non local Contribution for L=           0  read in
    real space projection operators read in
  non local Contribution for L=           0  read in
    real space projection operators read in
  non local Contribution for L=           1  read in
    real space projection operators read in
    PAW grid and wavefunctions read in
 
   number of l-projection  operators is LMAX  =           5
   number of lm-projection operators is LMMAX =          15
 
 POTCAR:    PAW_PBE O 08Apr2002                   
   VRHFIN =O: s2p4                                                              
   LEXCH  = PE                                                                  
   EATOM  =   432.3788 eV,   31.7789 Ry                                         
                                                                                
   TITEL  = PAW_PBE O 08Apr2002                                                 
   LULTRA =        F    use ultrasoft PP ?                                      
   IUNSCR =        1    unscreen: 0-lin 1-nonlin 2-no                           
   RPACOR =    1.200    partial core radius                                     
   POMASS =   16.000; ZVAL   =    6.000    mass and valenz                      
   RCORE  =    1.520    outmost cutoff radius                                   
   RWIGS  =    1.550; RWIGS  =    0.820    wigner-seitz radius (au A)           
   ENMAX  =  400.000; ENMIN  =  300.000 eV                                      
   ICORE  =        2    local potential                                         
   LCOR   =        T    correct aug charges                                     
   LPAW   =        T    paw PP                                                  
   EAUG   =  605.392                                                            
   DEXC   =    0.000                                                            
   RMAX   =    1.553    core radius for proj-oper                               
   RAUG   =    1.300    factor for augmentation sphere                          
   RDEP   =    1.550    radius for radial grids                                 
   RDEPT  =    1.329    core radius for aug-charge                              
                                                                                
   Atomic configuration                                                         
    4 entries                                                                   
     n  l   j            E        occ.                                          
     1  0  0.50      -514.6923   2.0000                                         
     2  0  0.50       -23.9615   2.0000                                         
     2  1  0.50        -9.0305   4.0000                                         
     3  2  1.50        -9.5241   0.0000                                         
   Description                                                                  
     l       E           TYP  RCUT    TYP  RCUT                                 
     0    -23.9615318     23  1.200                                             
     0     -9.5240782     23  1.200                                             
     1     -9.0304911     23  1.520                                             
     1      8.1634956     23  1.520                                             
     2     -9.5240782      7  1.500                                             
  local pseudopotential read in
  partial core-charges read in
  partial kinetic energy density read in
  kinetic energy density of atom read in
  atomic valenz-charges read in
  non local Contribution for L=           0  read in
    real space projection operators read in
  non local Contribution for L=           0  read in
    real space projection operators read in
  non local Contribution for L=           1  read in
    real space projection operators read in
  non local Contribution for L=           1  read in
    real space projection operators read in
    PAW grid and wavefunctions read in
 
   number of l-projection  operators is LMAX  =           4
   number of lm-projection operators is LMMAX =           8
 

 ----------------------------------------------------------------------------- 
|                                                                             |
|  ADVICE TO THIS USER RUNNING 'VASP/VAMP'   (HEAR YOUR MASTER'S VOICE ...):  |
|                                                                             |
|      You have a (more or less) 'large supercell' and for larger cells       |
|      it might be more efficient to use real space projection opertators     |
|      So try LREAL= Auto  in the INCAR   file.                               |
|      Mind:          For very  accurate calculation you might also keep the  |
|      reciprocal projection scheme          (i.e. LREAL=.FALSE.)             |
|                                                                             |
 ----------------------------------------------------------------------------- 

 WARNING: PSMAXN for non-local potential too small
          PSMAXN should be >   12.5490833729506       NTYP=           5
  PAW_PBE Al 04Jan2001                  :
 energy of atom  1       EATOM=  -53.5387
 kinetic energy error for atom=    0.0002 (will be added to EATOM!!)
  PAW_PBE Nb_sv 25May2007               :
 energy of atom  2       EATOM=-1555.1913
 kinetic energy error for atom=    0.0037 (will be added to EATOM!!)
  PAW_PBE Ta 17Jan2003                  :
 energy of atom  3       EATOM= -130.6506
 kinetic energy error for atom=    0.0004 (will be added to EATOM!!)
  PAW_PBE Ti 08Apr2002                  :
 energy of atom  4       EATOM=  -94.7928
 kinetic energy error for atom=    0.0001 (will be added to EATOM!!)
 PAW_PBE Zr 08Apr2002                   :
 energy of atom  5       EATOM=  -77.8472
 kinetic energy error for atom=    0.0001 (will be added to EATOM!!)
  PAW_PBE O 08Apr2002                   :
 energy of atom  6       EATOM= -432.3788
 kinetic energy error for atom=    0.0168 (will be added to EATOM!!)
 
 
 POSCAR: Al Nb Ta Ti Zr                          
  positions in direct lattice
  velocities in cartesian coordinates
 exchange correlation table for  LEXCH =        8
   RHO(1)=    0.500       N(1)  =     2000
   RHO(2)=  100.500       N(2)  =     4000
 


--------------------------------------------------------------------------------------------------------


 ion  position               nearest neighbor table
   1  0.623  0.867  0.376-  34 2.83  25 2.88  24 2.88   9 2.88  13 2.90   4 2.91  61 2.93  15 3.16
                            41 3.35  17 3.40
   2  0.623  0.393  0.547-  14 2.79  31 2.79  23 2.80  33 2.80  26 2.80   7 2.89  10 2.90  62 2.98
                            18 3.06  17 3.17  16 3.19   3 3.22  42 3.34
   3  0.618  0.638  0.626-  32 2.76  14 2.83  23 2.90  33 2.91   8 2.91  26 2.99  27 2.99  45 3.20
                             2 3.22
   4  0.618  0.084  0.450-  31 2.80  24 2.86  34 2.87  13 2.88   1 2.91  10 2.91  25 2.92   7 2.92
                            62 2.98  12 3.14  28 3.16  46 3.24
   5  0.975  0.641  0.551-  30 2.75  42 2.90  56 2.91  27 2.93  63 2.98  52 3.01  54 3.09  47 3.09
                            59 3.11  58 3.23  23 3.26  57 3.27
   6  0.980  0.121  0.378-  29 2.80  28 2.80  53 2.91  41 2.96  51 3.05  55 3.05  60 3.08  57 3.37

   7  0.729  0.343  0.458-  28 2.77  29 2.83  31 2.85   2 2.89  17 2.89  11 2.90   4 2.92  62 3.01
                            63 3.07  42 3.09
   8  0.725  0.900  0.620-  30 2.59  32 2.70  12 2.71  27 2.76  18 2.82   3 2.91  64 3.08  62 3.16

   9  0.517  0.608  0.367-  35 2.84  15 2.85  17 2.87   1 2.88  11 2.89  61 2.95  43 3.10
  10  0.515  0.133  0.540-  18 2.75  36 2.79  16 2.81  12 2.87   2 2.90   4 2.91  31 2.95  46 2.96
                            62 3.06  44 3.15
  11  0.618  0.343  0.369-  24 2.75  34 2.83  31 2.87   9 2.89   7 2.90  61 2.96  43 3.27
  12  0.621  0.874  0.537-  13 2.68   8 2.71  32 2.71  25 2.80  23 2.83  10 2.87  62 2.93  33 2.94
                             4 3.14  44 3.39
  13  0.742  0.843  0.462-  12 2.68  17 2.87   4 2.88   1 2.90  30 2.92  28 2.94  23 2.97  63 2.98
                            41 3.05  57 3.27  62 3.46
  14  0.744  0.405  0.627-  27 2.73   2 2.79  42 2.81   3 2.83  18 2.86  64 2.96  58 3.09
  15  0.394  0.847  0.369-  22 2.68  19 2.76  25 2.83  34 2.84   9 2.85  39 2.98   1 3.16  46 3.43

  16  0.392  0.367  0.543-  21 2.64  20 2.66  26 2.71  10 2.81  33 2.85  37 2.89  31 2.90  40 3.02
                             2 3.19
  17  0.619  0.602  0.458-  25 2.81  33 2.84  31 2.85  23 2.85   9 2.87  13 2.87   7 2.89  61 2.95
                            35 3.03   2 3.17   1 3.40  63 3.44
  18  0.627  0.159  0.622-  10 2.75  26 2.76  62 2.78   8 2.82  14 2.86  32 2.86   2 3.06  36 3.18
                            64 3.27
  19  0.279  0.834  0.451-  15 2.76  35 2.94  46 2.96  39 2.97  25 2.99  44 2.99  60 3.07  51 3.08
                            47 3.12  56 3.25
  20  0.280  0.370  0.621-  67 2.27  16 2.66  36 2.92  26 2.99  52 3.00  21 3.03  40 3.06  45 3.07
                            59 3.12  48 3.15
  21  0.279  0.590  0.543-  16 2.64  45 2.89  52 2.98  59 2.99  44 3.00  35 3.03  33 3.03  20 3.03
                            37 3.07  47 3.12  56 3.14
  22  0.283  0.077  0.361-  15 2.68  46 2.97  43 2.97  34 2.99  51 3.02  55 3.10  60 3.10
  23  0.739  0.633  0.541-  30 2.77   2 2.80  27 2.80  12 2.83  17 2.85   3 2.90  63 2.93  42 2.96
                            13 2.97   5 3.26
  24  0.740  0.115  0.366-  29 2.73  11 2.75  28 2.85   4 2.86   1 2.88  41 3.00
  25  0.496  0.836  0.458-  35 2.78  12 2.80  17 2.81  15 2.83   1 2.88   4 2.92  44 2.99  19 2.99
                            46 2.99  33 3.05
  26  0.497  0.378  0.626-  16 2.71  18 2.76   2 2.80  36 2.85   3 2.99  20 2.99  45 3.02
  27  0.834  0.660  0.630-  68 2.13  14 2.73   8 2.76  58 2.80  23 2.80   5 2.93  30 2.96   3 2.99
                            54 3.04
  28  0.847  0.110  0.455-   7 2.77  62 2.77   6 2.80  24 2.85  57 2.90  13 2.94  53 2.98  29 3.15
                             4 3.16  50 3.19  41 3.36
  29  0.852  0.349  0.376-  24 2.73   6 2.80   7 2.83  53 2.94  61 2.98  49 3.07  28 3.15  63 3.25

  30  0.853  0.869  0.552-   8 2.59   5 2.75  23 2.77  54 2.91  13 2.92  27 2.96  57 2.96  62 2.99
                            50 3.05
  31  0.522  0.339  0.461-   2 2.79   4 2.80  17 2.85   7 2.85  35 2.86  11 2.87  16 2.90  10 2.95
                            46 2.95  43 3.11
  32  0.529  0.896  0.623-  65 2.01   8 2.70  12 2.71   3 2.76  36 2.78  18 2.86  44 2.99  45 3.07

  33  0.498  0.624  0.540-   2 2.80  35 2.83  17 2.84  16 2.85   3 2.91  44 2.92  12 2.94  45 2.94
                            21 3.03  25 3.05
  34  0.499  0.102  0.365-  11 2.83   1 2.83  15 2.84   4 2.87  43 2.91  46 2.98  22 2.99
  35  0.400  0.580  0.451-  25 2.78  33 2.83   9 2.84  31 2.86  37 2.88  39 2.93  19 2.94  21 3.03
                            17 3.03  43 3.08
  36  0.398  0.117  0.622-  67 2.03  65 2.18  32 2.78  10 2.79  26 2.85  38 2.91  20 2.92  40 2.92
                            44 3.15  18 3.18
  37  0.255  0.366  0.464-  35 2.88  16 2.89  47 3.02  60 3.04  43 3.05  21 3.07  55 3.08  46 3.08
                            52 3.16  40 3.24  39 3.39
  38  0.239  0.918  0.628-  65 2.03  67 2.15  56 2.86  36 2.91  44 2.97  40 3.01  59 3.06  48 3.13
                            45 3.26  54 3.34
  39  0.252  0.614  0.376-  35 2.93  19 2.97  15 2.98  47 3.07  43 3.07  51 3.07  55 3.08  37 3.39
                            49 3.53
  40  0.245  0.133  0.549-  67 2.44  36 2.92  38 3.01  16 3.02  60 3.06  20 3.06  44 3.08  52 3.11
                            56 3.19  46 3.22  48 3.22  37 3.24  50 3.46
  41  0.865  0.859  0.370-   6 2.96  24 3.00  61 3.05  13 3.05  57 3.06  49 3.12   1 3.35  28 3.36
                            51 3.49  63 3.53
  42  0.865  0.383  0.546-  14 2.81   5 2.90  23 2.96  62 3.00   7 3.09  58 3.11  63 3.14  50 3.14
                            53 3.20   2 3.34  64 3.35  52 3.41
  43  0.381  0.352  0.373-  34 2.91  22 2.97  37 3.05  39 3.07  35 3.08   9 3.10  31 3.11  55 3.26
                            11 3.27  46 3.29
  44  0.376  0.872  0.547-  65 2.44  33 2.92  38 2.97  25 2.99  19 2.99  32 2.99  21 3.00  40 3.08
                            45 3.13  36 3.15  10 3.15  56 3.36  46 3.36  12 3.39
  45  0.386  0.651  0.630-  65 2.32  21 2.89  33 2.94  26 3.02  32 3.07  20 3.07  44 3.13   3 3.20
                            38 3.26  59 3.35
  46  0.384  0.104  0.456-  31 2.95  19 2.96  10 2.96  22 2.97  34 2.98  25 2.99  37 3.08  40 3.22
                             4 3.24  60 3.27  43 3.29  44 3.36  15 3.43
  47  0.117  0.611  0.465-  37 3.02  39 3.07   5 3.09  56 3.11  19 3.12  21 3.12  53 3.14  49 3.15
                            57 3.17  52 3.20  63 3.42  51 3.52  55 3.80
  48  0.100  0.174  0.639-  66 2.08  67 2.17  50 3.06  38 3.13  20 3.15  58 3.15  52 3.19  54 3.22
                            40 3.22  64 3.27
  49  0.996  0.593  0.368-  63 3.05  29 3.07  41 3.12  47 3.15  51 3.16  55 3.23  53 3.44  39 3.53
                            61 3.65  57 3.82
  50  0.994  0.113  0.544-  30 3.05  48 3.06  64 3.13  42 3.14  57 3.15  52 3.16  28 3.19  56 3.22
                            53 3.27  54 3.27  60 3.33  40 3.46  62 3.55
  51  0.119  0.872  0.375-  60 3.00  22 3.02   6 3.05  39 3.07  19 3.08  57 3.16  49 3.16  41 3.49
                            47 3.52
  52  0.112  0.395  0.553-  21 2.98  20 3.00   5 3.01  59 3.05  40 3.11  50 3.16  37 3.16  48 3.19
                            47 3.20  53 3.22  58 3.28  42 3.41
  53  1.000  0.331  0.453-   6 2.91  29 2.94  28 2.98  60 3.06  63 3.08  55 3.09  47 3.14  42 3.20
                            52 3.22  50 3.27  49 3.44
  54  0.998  0.872  0.628-  68 2.17  30 2.91  56 3.01  27 3.04  59 3.06   5 3.09  48 3.22  64 3.24
                            50 3.27  38 3.34
  55  0.145  0.332  0.368-   6 3.05  37 3.08  39 3.08  53 3.09  22 3.10  49 3.23  60 3.24  43 3.26
                            47 3.80
  56  0.133  0.842  0.543-  38 2.86   5 2.91  54 3.01  57 3.04  59 3.06  47 3.11  21 3.14  40 3.19
                            50 3.22  19 3.25  44 3.36  60 3.51
  57  0.979  0.876  0.465-  28 2.90  30 2.96  56 3.04  41 3.06  63 3.11  60 3.13  50 3.15  51 3.16
                            47 3.17   5 3.27  13 3.27   6 3.37  49 3.82
  58  0.965  0.440  0.645-  66 2.09  68 2.16  27 2.80  14 3.09  59 3.10  42 3.11  64 3.13  48 3.15
                             5 3.23  52 3.28
  59  0.143  0.629  0.626-  68 2.42  21 2.99  52 3.05  38 3.06  54 3.06  56 3.06  58 3.10   5 3.11
                            20 3.12  45 3.35
  60  0.147  0.092  0.451-  51 3.00  37 3.04  53 3.06  40 3.06  19 3.07   6 3.08  22 3.10  57 3.13
                            55 3.24  46 3.27  50 3.33  56 3.51
  61  0.731  0.606  0.367-   1 2.93  17 2.95   9 2.95  11 2.96  29 2.98  41 3.05  63 3.17  49 3.65

  62  0.737  0.130  0.538-  28 2.77  18 2.78  12 2.93   2 2.98   4 2.98  30 2.99  42 3.00   7 3.01
                            10 3.06   8 3.16  64 3.21  13 3.46  50 3.55
  63  0.869  0.592  0.458-  23 2.93  13 2.98   5 2.98  49 3.05   7 3.07  53 3.08  57 3.11  42 3.14
                            61 3.17  29 3.25  47 3.42  17 3.44  41 3.53
  64  0.863  0.148  0.636-  66 2.15  14 2.96   8 3.08  58 3.13  50 3.13  62 3.21  54 3.24  18 3.27
                            48 3.27  42 3.35
  65  0.385  0.893  0.635-  32 2.01  38 2.03  36 2.18  45 2.32  44 2.44
  66  0.978  0.243  0.676-  48 2.08  58 2.09  64 2.15
  67  0.255  0.140  0.637-  36 2.03  38 2.15  48 2.17  20 2.27  40 2.44
  68  0.980  0.662  0.656-  27 2.13  58 2.16  54 2.17  59 2.42
 
  LATTYP: Found a simple orthorhombic cell.
 ALAT       =     9.5644817352
 B/A-ratio  =     1.4398428730
 C/A-ratio  =     2.8922184390
  
  Lattice vectors:
  
 A1 = (   0.0000000000,  -9.5644817352,   0.0000000000)
 A2 = ( -13.7713508606,   0.0000000000,   0.0000000000)
 A3 = (   0.0000000000,   0.0000000000, -27.6625704340)


Analysis of symmetry for initial positions (statically):
=====================================================================
 Subroutine PRICEL returns:
 Original cell was already a primitive cell.
 

 Routine SETGRP: Setting up the symmetry group for a 
 simple orthorhombic supercell.


 Subroutine GETGRP returns: Found  1 space group operations
 (whereof  1 operations were pure point group operations)
 out of a pool of  8 trial point group operations.


The static configuration has the point symmetry C_1 .


Analysis of symmetry for dynamics (positions and initial velocities):
=====================================================================
 Subroutine PRICEL returns:
 Original cell was already a primitive cell.
 

 Routine SETGRP: Setting up the symmetry group for a 
 simple orthorhombic supercell.


 Subroutine GETGRP returns: Found  1 space group operations
 (whereof  1 operations were pure point group operations)
 out of a pool of  8 trial point group operations.


The dynamic configuration has the point symmetry C_1 .


Analysis of constrained symmetry for selective dynamics:
=====================================================================
 Subroutine PRICEL returns:
 Original cell was already a primitive cell.
 

 Routine SETGRP: Setting up the symmetry group for a 
 simple orthorhombic supercell.


 Subroutine GETGRP returns: Found  1 space group operations
 (whereof  1 operations were pure point group operations)
 out of a pool of  8 trial point group operations.


The constrained configuration has the point symmetry C_1 .


 Subroutine INISYM returns: Found  1 space group operations
 (whereof  1 operations are pure point group operations),
 and found     1 'primitive' translations

 
 
 KPOINTS: k-points                                

Automatic generation of k-mesh.
Space group operators:
 irot       det(A)        alpha          n_x          n_y          n_z        tau_x        tau_y        tau_z
    1     1.000000     0.000001     1.000000     0.000000     0.000000     0.000000     0.000000     0.000000
 
 Subroutine IBZKPT returns following result:
 ===========================================
 
 Found      5 irreducible k-points:
 
 Following reciprocal coordinates:
            Coordinates               Weight
  0.000000  0.000000  0.000000      1.000000
  0.333333  0.000000  0.000000      2.000000
  0.000000  0.333333  0.000000      2.000000
  0.333333  0.333333  0.000000      2.000000
 -0.333333  0.333333  0.000000      2.000000
 
 Following cartesian coordinates:
            Coordinates               Weight
  0.000000  0.000000  0.000000      1.000000
  0.024205  0.000000  0.000000      2.000000
  0.000000  0.034851  0.000000      2.000000
  0.024205  0.034851  0.000000      2.000000
 -0.024205  0.034851  0.000000      2.000000
 
 
 Subroutine IBZKPT_HF returns following result:
 ==============================================
 
 Found      9 k-points in 1st BZ
 the following      9 k-points will be used (e.g. in the exchange kernel)
 Following reciprocal coordinates:   # in IRBZ
  0.000000  0.000000  0.000000    0.11111111   1 t-inv F
  0.333333  0.000000  0.000000    0.11111111   2 t-inv F
  0.000000  0.333333  0.000000    0.11111111   3 t-inv F
  0.333333  0.333333  0.000000    0.11111111   4 t-inv F
 -0.333333  0.333333  0.000000    0.11111111   5 t-inv F
 -0.333333  0.000000  0.000000    0.11111111   2 t-inv T
  0.000000 -0.333333  0.000000    0.11111111   3 t-inv T
 -0.333333 -0.333333  0.000000    0.11111111   4 t-inv T
  0.333333 -0.333333  0.000000    0.11111111   5 t-inv T


--------------------------------------------------------------------------------------------------------




 Dimension of arrays:
   k-points           NKPTS =      5   k-points in BZ     NKDIM =      5   number of bands    NBANDS=    240
   number of dos      NEDOS =    301   number of ions     NIONS =     68
   non local maximal  LDIM  =      6   non local SUM 2l+1 LMDIM =     18
   total plane-waves  NPLWV = 846720
   max r-space proj   IRMAX =      1   max aug-charges    IRDMAX=  25433
   dimension x,y,z NGX =    84 NGY =   60 NGZ =  168
   dimension x,y,z NGXF=   168 NGYF=  120 NGZF=  336
   support grid    NGXF=   168 NGYF=  120 NGZF=  336
   ions per type =               6  10   4  18  26   4
   NGX,Y,Z   is equivalent  to a cutoff of  10.14, 10.43, 10.10 a.u.
   NGXF,Y,Z  is equivalent  to a cutoff of  20.28, 20.86, 20.19 a.u.

 SYSTEM =  (110) surface DM                        
 POSCAR =  Al Nb Ta Ti Zr                          

 Startparameter for this run:
   NWRITE =      2    write-flag & timer
   PREC   = normal    normal or accurate (medium, high low for compatibility)
   ISTART =      0    job   : 0-new  1-cont  2-samecut
   ICHARG =      2    charge: 1-file 2-atom 10-const
   ISPIN  =      1    spin polarized calculation?
   LNONCOLLINEAR =      F non collinear calculations
   LSORBIT =      F    spin-orbit coupling
   INIWAV =      1    electr: 0-lowe 1-rand  2-diag
   LASPH  =      F    aspherical Exc in radial PAW
   METAGGA=      F    non-selfconsistent MetaGGA calc.

 Electronic Relaxation 1
   ENCUT  =  600.0 eV  44.10 Ry    6.64 a.u.  27.50 19.10 55.25*2*pi/ulx,y,z
   ENINI  =  600.0     initial cutoff
   ENAUG  =  605.4 eV  augmentation charge cutoff
   NELM   =     60;   NELMIN=  2; NELMDL= -5     # of ELM steps 
   EDIFF  = 0.1E-05   stopping-criterion for ELM
   LREAL  =      F    real-space projection
   NLSPLINE    = F    spline interpolate recip. space projectors
   LCOMPAT=      F    compatible to vasp.4.4
   GGA_COMPAT  = T    GGA compatible to vasp.4.4-vasp.4.6
   LMAXPAW     = -100 max onsite density
   LMAXMIX     =    2 max onsite mixed and CHGCAR
   VOSKOWN=      0    Vosko Wilk Nusair interpolation
   ROPT   =    0.00000   0.00000   0.00000   0.00000
   ROPT   =    0.00000   0.00000
 Ionic relaxation
   EDIFFG = 0.1E-04   stopping-criterion for IOM
   NSW    =    853    number of steps for IOM
   NBLOCK =      1;   KBLOCK =    853    inner block; outer block 
   IBRION =      5    ionic relax: 0-MD 1-quasi-New 2-CG
   NFREE  =      2    steps in history (QN), initial steepest desc. (CG)
   ISIF   =      2    stress and relaxation
   IWAVPR =     11    prediction:  0-non 1-charg 2-wave 3-comb
   ISYM   =      2    0-nonsym 1-usesym 2-fastsym
   LCORR  =      T    Harris-Foulkes like correction to forces

   POTIM  = 0.0150    time-step for ionic-motion
   TEIN   =    0.0    initial temperature
   TEBEG  =    0.0;   TEEND  =   0.0 temperature during run
   SMASS  =  -3.00    Nose mass-parameter (am)
   estimated Nose-frequenzy (Omega)   =  0.10E-29 period in steps =****** mass=  -0.433E-26a.u.
   SCALEE = 1.0000    scale energy and forces
   NPACO  =    256;   APACO  = 16.0  distance and # of slots for P.C.
   PSTRESS=    0.0 pullay stress

  Mass of Ions in am
   POMASS =  26.98 92.91180.95 47.88 91.22 16.00
  Ionic Valenz
   ZVAL   =   3.00 13.00  5.00  4.00  4.00  6.00
  Atomic Wigner-Seitz radii
   RWIGS  =  -1.00 -1.00 -1.00 -1.00 -1.00 -1.00
  virtual crystal weights 
   VCA    =   1.00  1.00  1.00  1.00  1.00  1.00
   NELECT =     368.0000    total number of electrons
   NUPDOWN=      -1.0000    fix difference up-down

 DOS related values:
   EMIN   =  10.00;   EMAX   =-10.00  energy-range for DOS
   EFERMI =   0.00
   ISMEAR =     2;   SIGMA  =   0.10  broadening in eV -4-tet -1-fermi 0-gaus

 Electronic relaxation 2 (details)
   IALGO  =     38    algorithm
   LDIAG  =      T    sub-space diagonalisation (order eigenvalues)
   LSUBROT=      F    optimize rotation matrix (better conditioning)
   TURBO    =      0    0=normal 1=particle mesh
   IRESTART =      0    0=no restart 2=restart with 2 vectors
   NREBOOT  =      0    no. of reboots
   NMIN     =      0    reboot dimension
   EREF     =   0.00    reference energy to select bands
   IMIX   =      4    mixing-type and parameters
     AMIX     =   0.40;   BMIX     =  1.00
     AMIX_MAG =   1.60;   BMIX_MAG =  1.00
     AMIN     =   0.10
     WC   =   100.;   INIMIX=   1;  MIXPRE=   1;  MAXMIX=  60

 Intra band minimization:
   WEIMIN = 0.0010     energy-eigenvalue tresh-hold
   EBREAK =  0.10E-08  absolut break condition
   DEPER  =   0.30     relativ break condition  

   TIME   =   0.40     timestep for ELM

  volume/ion in A,a.u.               =      53.58       361.59
  Fermi-wavevector in a.u.,A,eV,Ry     =   0.762396  1.440719  7.908354  0.581248
  Thomas-Fermi vector in A             =   1.861848
 
 Write flags
   LWAVE        =      F    write WAVECAR
   LDOWNSAMPLE  =      F    k-point downsampling of WAVECAR
   LCHARG       =      F    write CHGCAR
   LVTOT        =      F    write LOCPOT, total local potential
   LVHAR        =      F    write LOCPOT, Hartree potential only
   LELF         =      F    write electronic localiz. function (ELF)
   LORBIT       =      0    0 simple, 1 ext, 2 COOP (PROOUT), +10 PAW based schemes


 Dipole corrections
   LMONO  =      F    monopole corrections only (constant potential shift)
   LDIPOL =      F    correct potential (dipole corrections)
   IDIPOL =      0    1-x, 2-y, 3-z, 4-all directions 
   EPSILON=  1.0000000 bulk dielectric constant

 Exchange correlation treatment:
   GGA     =    --    GGA type
   LEXCH   =     8    internal setting for exchange type
   VOSKOWN=      0    Vosko Wilk Nusair interpolation
   LHFCALC =     F    Hartree Fock is set to
   LHFONE  =     F    Hartree Fock one center treatment
   AEXX    =    0.0000 exact exchange contribution

 Linear response parameters
   LEPSILON=     F    determine dielectric tensor
   LRPA    =     F    only Hartree local field effects (RPA)
   LNABLA  =     F    use nabla operator in PAW spheres
   LVEL    =     F    velocity operator in full k-point grid
   LINTERFAST=   F  fast interpolation
   KINTER  =     0    interpolate to denser k-point grid
   CSHIFT  =0.1000    complex shift for real part using Kramers Kronig
   OMEGAMAX=  -1.0    maximum frequency
   DEG_THRESHOLD= 0.2000000E-02 threshold for treating states as degnerate
   RTIME   =   -0.100 relaxation time in fs
  (WPLASMAI=    0.000 imaginary part of plasma frequency in eV, 0.658/RTIME)
   DFIELD  = 0.0000000 0.0000000 0.0000000 field for delta impulse in time
 
 Orbital magnetization related:
   ORBITALMAG=     F  switch on orbital magnetization
   LCHIMAG   =     F  perturbation theory with respect to B field
   DQ        =  0.001000  dq finite difference perturbation B field
   LLRAUG    =     F  two centre corrections for induced B field



--------------------------------------------------------------------------------------------------------


 finite differences
   using selective dynamics as specified on POSCAR
 charge density and potential will be updated during run
 non-spin polarized calculation
 Variant of blocked Davidson
 Davidson routine will perform the subspace rotation
 perform sub-space diagonalisation
    after iterative eigenvector-optimisation
 modified Broyden-mixing scheme, WC =      100.0
 initial mixing is a Kerker type mixing with AMIX =  0.4000 and BMIX =      1.0000
 Hartree-type preconditioning will be used
 using additional bands           56
 reciprocal scheme for non local part
 use partial core corrections
 calculate Harris-corrections to forces 
   (improved forces if not selfconsistent)
 use gradient corrections 
 use of overlap-Matrix (Vanderbilt PP)
 Methfessel and Paxton  Order N= 2 SIGMA  =   0.10


--------------------------------------------------------------------------------------------------------


  energy-cutoff  :      600.00
  volume of cell :     3643.60
      direct lattice vectors                 reciprocal lattice vectors
    13.771350861  0.000000000  0.000000000     0.072614518  0.000000000  0.000000000
     0.000000000  9.564481735  0.000000000     0.000000000  0.104553496  0.000000000
     0.000000000  0.000000000 27.662570434     0.000000000  0.000000000  0.036149931

  length of vectors
    13.771350861  9.564481735 27.662570434     0.072614518  0.104553496  0.036149931


 
 k-points in units of 2pi/SCALE and weight: k-points                                
   0.00000000  0.00000000  0.00000000       0.111
   0.02420484  0.00000000  0.00000000       0.222
   0.00000000  0.03485117  0.00000000       0.222
   0.02420484  0.03485117  0.00000000       0.222
  -0.02420484  0.03485117  0.00000000       0.222
 
 k-points in reciprocal lattice and weights: k-points                                
   0.00000000  0.00000000  0.00000000       0.111
   0.33333333  0.00000000  0.00000000       0.222
   0.00000000  0.33333333  0.00000000       0.222
   0.33333333  0.33333333  0.00000000       0.222
  -0.33333333  0.33333333  0.00000000       0.222
 
 position of ions in fractional coordinates (direct lattice) 
   0.62276447  0.86746430  0.37590333
   0.62281009  0.39321993  0.54657380
   0.61766350  0.63775545  0.62648838
   0.61839700  0.08363760  0.44965952
   0.97498090  0.64088219  0.55082262
   0.97963780  0.12056648  0.37767599
   0.72857308  0.34338307  0.45816820
   0.72458822  0.89965444  0.61953760
   0.51739597  0.60805875  0.36719826
   0.51520260  0.13268868  0.54005715
   0.61811078  0.34297293  0.36889183
   0.62075163  0.87429961  0.53686299
   0.74231148  0.84345710  0.46199300
   0.74429707  0.40530606  0.62701763
   0.39405298  0.84738672  0.36896032
   0.39209646  0.36714737  0.54331710
   0.61928761  0.60162497  0.45752798
   0.62725227  0.15881605  0.62202487
   0.27944195  0.83362269  0.45088327
   0.27978479  0.36983764  0.62140865
   0.27915821  0.59036073  0.54262484
   0.28324246  0.07725573  0.36149931
   0.73888382  0.63269749  0.54093295
   0.74002355  0.11549973  0.36646499
   0.49591756  0.83582580  0.45790018
   0.49698270  0.37820859  0.62597696
   0.83414440  0.65998889  0.63002666
   0.84724605  0.11017048  0.45460239
   0.85243583  0.34907103  0.37639265
   0.85268205  0.86878821  0.55180141
   0.52175105  0.33942658  0.46105252
   0.52870496  0.89560190  0.62313746
   0.49797666  0.62350933  0.54011641
   0.49943882  0.10200214  0.36464270
   0.40016663  0.58028412  0.45130253
   0.39812683  0.11708246  0.62202302
   0.25505811  0.36595738  0.46399110
   0.23894056  0.91777894  0.62811194
   0.25182599  0.61397660  0.37627308
   0.24527205  0.13282384  0.54885345
   0.86539888  0.85904646  0.37036829
   0.86503703  0.38302930  0.54564971
   0.38059813  0.35186696  0.37331264
   0.37574494  0.87178200  0.54684487
   0.38588931  0.65057930  0.63024156
   0.38408008  0.10357511  0.45579618
   0.11657381  0.61110574  0.46457054
   0.09955118  0.17407489  0.63896734
   0.99629861  0.59295863  0.36811234
   0.99426894  0.11252677  0.54391867
   0.11869311  0.87196302  0.37467704
   0.11181790  0.39538056  0.55284802
   0.99977952  0.33051389  0.45306987
   0.99844336  0.87195957  0.62808560
   0.14482272  0.33176249  0.36788561
   0.13303517  0.84191716  0.54320883
   0.97888047  0.87608504  0.46520830
   0.96463027  0.43983254  0.64466012
   0.14332771  0.62948931  0.62585290
   0.14721048  0.09173214  0.45072276
   0.73135245  0.60578495  0.36679988
   0.73707593  0.13036829  0.53815966
   0.86923259  0.59196168  0.45825814
   0.86278982  0.14840163  0.63556159
   0.38490130  0.89309103  0.63455490
   0.97797012  0.24273700  0.67641095
   0.25494862  0.13963290  0.63703150
   0.97980717  0.66223775  0.65626465
 
 position of ions in cartesian coordinates  (Angst):
   8.57630799  8.29684649 10.39845223
   8.57693628  3.76094482 15.11963618
   8.50606073  6.09980033 17.33027903
   8.51616202  0.79995025 12.43873821
  13.42680408  6.12970604 15.23716945
  13.49093588  1.15315590 10.44748880
  10.03343557  3.28428114 12.67411000
   9.97855861  8.60472844 17.13800253
   7.12524148  5.81576681 10.15764776
   7.09503573  1.26909850 14.93936885
   8.51222037  3.28035836 10.20449636
   8.54858849  8.36222263 14.85101017
  10.22263181  8.06723005 12.77991378
  10.24997609  3.87654245 17.34491948
   5.42664188  8.10481479 10.20639088
   5.39969796  3.51157432 15.02954753
   8.52842696  5.75423100 12.65640004
   8.63811107  1.51899319 17.20680686
   3.84829318  7.97316903 12.47259035
   3.85301447  3.53730534 17.18976066
   3.84438560  5.64649446 15.01039787
   3.90063135  0.73891098 10.00000000
  10.17542837  6.05142355 14.96359579
  10.19112400  1.10469510 10.13736353
   6.82945470  7.99424061 12.66669595
   6.84412307  3.61736917 17.31613163
  11.48729515  6.31245169 17.42815696
  11.66772263  1.05372358 12.57547056
  11.73919286  3.33868345 10.41198829
  11.74258364  8.30950895 15.26424535
   7.18521672  3.24643930 12.75389771
   7.28098154  8.56596798 17.23758398
   6.85781132  5.96354357 14.94100832
   6.87794726  0.97559764 10.08695433
   5.51083508  5.55011685 12.48418803
   5.48274431  1.11983302 17.20675560
   3.51249472  3.50019267 12.83518635
   3.29053424  8.77807995 17.37519069
   3.46798404  5.87236796 10.40868071
   3.37772742  1.27039117 15.18269710
  11.91771166  8.21633417 10.24533883
  11.91272846  3.66347670 15.09407344
   5.24135036  3.36542512 10.32678719
   5.17451545  8.33814299 15.12713479
   5.31421707  6.22245385 17.43410149
   5.28930157  0.99064225 12.60849381
   1.60537885  5.84490969 12.85121538
   1.37095424  1.66493612 17.67547918
  13.72037774  5.67134198 10.18293350
  13.69242645  1.07626026 15.04618842
   1.63456451  8.33987442 10.36453009
   1.53988351  3.78161016 15.29319718
  13.76831459  3.16119411 12.53307716
  13.74991383  8.33984134 17.37446212
   1.99440444  3.17313630 10.17666150
   1.83207403  8.05250127 15.02655247
  13.48050634  8.37929939 12.86885734
  13.28426190  4.20677032 17.83295585
   1.97381613  6.02073903 17.31270003
   2.02728715  0.87737042 12.46815015
  10.07171117  5.79401911 10.14662739
  10.15053130  1.24690513 14.88687941
  11.97050705  5.66180669 12.67659812
  11.88178129  1.41938464 17.58126724
   5.30061087  8.54195284 17.55341955
  13.46796970  2.32165362 18.71126544
   3.51098684  1.33551629 17.62192873
  13.49326831  6.33396083 18.15396706
 


--------------------------------------------------------------------------------------------------------


 k-point  1 :   0.0000 0.0000 0.0000  plane waves:  121663
 k-point  2 :   0.3333 0.0000 0.0000  plane waves:  121577
 k-point  3 :   0.0000 0.3333 0.0000  plane waves:  121622
 k-point  4 :   0.3333 0.3333 0.0000  plane waves:  121647
 k-point  5 :  -0.3333 0.3333 0.0000  plane waves:  121647

 maximum and minimum number of plane-waves per node :    121663   121577

 maximum number of plane-waves:    121663
 maximum index in each direction: 
   IXMAX=   27   IYMAX=   19   IZMAX=   55
   IXMIN=  -27   IYMIN=  -19   IZMIN=  -55


 serial   3D FFT for wavefunctions
 parallel 3D FFT for charge:
    minimum data exchange during FFTs selected (reduces bandwidth)


 total amount of memory used by VASP MPI-rank0   834421. kBytes
=======================================================================

   base      :      30000. kBytes
   nonl-proj :     658045. kBytes
   fftplans  :      11449. kBytes
   grid      :      55342. kBytes
   one-center:       1057. kBytes
   wavefun   :      78528. kBytes
 
     INWAV:  cpu time    0.0001: real time    0.0002
 Broyden mixing: mesh for mixing (old mesh)
   NGX = 55   NGY = 39   NGZ =111
  (NGX  =168   NGY  =120   NGZ  =336)
  gives a total of 238095 points

 initial charge density was supplied:
 charge density of overlapping atoms calculated
 number of electron     368.0000000 magnetization 
 keeping initial charge density in first step


--------------------------------------------------------------------------------------------------------


 Maximum index for augmentation-charges         1478 (set IRDMAX)


--------------------------------------------------------------------------------------------------------


 First call to EWALD:  gamma=   0.115
 Maximum number of real-space cells 3x 4x 2
 Maximum number of reciprocal cells 3x 2x 5

    FEWALD:  cpu time    0.0021: real time    0.0025


--------------------------------------- Iteration      1(   1)  ---------------------------------------


    POTLOK:  cpu time    0.1358: real time    0.1414
    SETDIJ:  cpu time    0.0099: real time    0.0124
     EDDAV:  cpu time   26.9372: real time   27.1619
       DOS:  cpu time    0.0044: real time    0.0063
    --------------------------------------------
      LOOP:  cpu time   27.0873: real time   27.3220

 eigenvalue-minimisations  :  2550
 total energy-change (2. order) : 0.4019211E+04  (-0.1358609E+05)
 number of electron     368.0000000 magnetization 
 augmentation part      368.0000000 magnetization 

 Free energy of the ion-electron system (eV)
  ---------------------------------------------------
  alpha Z        PSCENC =       552.32592117
  Ewald energy   TEWEN  =     76361.09840993
  -Hartree energ DENC   =    -95970.36369496
  -exchange      EXHF   =         0.00000000
  -V(xc)+E(xc)   XCENC  =     -2977.27586366
  PAW double counting   =     20825.47903073   -16741.43993414
  entropy T*S    EENTRO =        -0.00392740
  eigenvalues    EBANDS =       113.94021246
  atomic energy  EATOM  =     21855.45048279
  Solvation  Ediel_sol  =         0.00000000
  ---------------------------------------------------
  free energy    TOTEN  =      4019.21063692 eV

  energy without entropy =     4019.21456432  energy(sigma->0) =     4019.21161877


--------------------------------------------------------------------------------------------------------




--------------------------------------- Iteration      1(   2)  ---------------------------------------


     EDDAV:  cpu time   27.5598: real time   27.7651
       DOS:  cpu time    0.0009: real time    0.0009
    --------------------------------------------
      LOOP:  cpu time   27.5607: real time   27.7660

 eigenvalue-minimisations  :  2640
 total energy-change (2. order) :-0.3778683E+04  (-0.3652163E+04)
 number of electron     368.0000000 magnetization 
 augmentation part      368.0000000 magnetization 

 Free energy of the ion-electron system (eV)
  ---------------------------------------------------
  alpha Z        PSCENC =       552.32592117
  Ewald energy   TEWEN  =     76361.09840993
  -Hartree energ DENC   =    -95970.36369496
  -exchange      EXHF   =         0.00000000
  -V(xc)+E(xc)   XCENC  =     -2977.27586366
  PAW double counting   =     20825.47903073   -16741.43993414
  entropy T*S    EENTRO =         0.00152191
  eigenvalues    EBANDS =     -3664.74790480
  atomic energy  EATOM  =     21855.45048279
  Solvation  Ediel_sol  =         0.00000000
  ---------------------------------------------------
  free energy    TOTEN  =       240.52796897 eV

  energy without entropy =      240.52644706  energy(sigma->0) =      240.52758849


--------------------------------------------------------------------------------------------------------




--------------------------------------- Iteration      1(   3)  ---------------------------------------


     EDDAV:  cpu time   40.3078: real time   40.5895
       DOS:  cpu time    0.0009: real time    0.0009
    --------------------------------------------
      LOOP:  cpu time   40.3087: real time   40.5905

 eigenvalue-minimisations  :  4200
 total energy-change (2. order) :-0.7445550E+03  (-0.7158893E+03)
 number of electron     368.0000000 magnetization 
 augmentation part      368.0000000 magnetization 

 Free energy of the ion-electron system (eV)
  ---------------------------------------------------
  alpha Z        PSCENC =       552.32592117
  Ewald energy   TEWEN  =     76361.09840993
  -Hartree energ DENC   =    -95970.36369496
  -exchange      EXHF   =         0.00000000
  -V(xc)+E(xc)   XCENC  =     -2977.27586366
  PAW double counting   =     20825.47903073   -16741.43993414
  entropy T*S    EENTRO =        -0.00102062
  eigenvalues    EBANDS =     -4409.30037464
  atomic energy  EATOM  =     21855.45048279
  Solvation  Ediel_sol  =         0.00000000
  ---------------------------------------------------
  free energy    TOTEN  =      -504.02704341 eV

  energy without entropy =     -504.02602278  energy(sigma->0) =     -504.02678825


--------------------------------------------------------------------------------------------------------




--------------------------------------- Iteration      1(   4)  ---------------------------------------


     EDDAV:  cpu time   38.2868: real time   38.5845
       DOS:  cpu time    0.0008: real time    0.0008
    --------------------------------------------
      LOOP:  cpu time   38.2877: real time   38.5853

 eigenvalue-minimisations  :  3960
 total energy-change (2. order) :-0.1109370E+03  (-0.1072203E+03)
 number of electron     368.0000000 magnetization 
 augmentation part      368.0000000 magnetization 

 Free energy of the ion-electron system (eV)
  ---------------------------------------------------
  alpha Z        PSCENC =       552.32592117
  Ewald energy   TEWEN  =     76361.09840993
  -Hartree energ DENC   =    -95970.36369496
  -exchange      EXHF   =         0.00000000
  -V(xc)+E(xc)   XCENC  =     -2977.27586366
  PAW double counting   =     20825.47903073   -16741.43993414
  entropy T*S    EENTRO =        -0.00003924
  eigenvalues    EBANDS =     -4520.23833843
  atomic energy  EATOM  =     21855.45048279
  Solvation  Ediel_sol  =         0.00000000
  ---------------------------------------------------
  free energy    TOTEN  =      -614.96402581 eV

  energy without entropy =     -614.96398657  energy(sigma->0) =     -614.96401600


--------------------------------------------------------------------------------------------------------




--------------------------------------- Iteration      1(   5)  ---------------------------------------


     EDDAV:  cpu time   42.1389: real time   42.4548
       DOS:  cpu time    0.0006: real time    0.0006
    CHARGE:  cpu time    0.4803: real time    0.4874
    MIXING:  cpu time    0.0040: real time    0.0076
    --------------------------------------------
      LOOP:  cpu time   42.6238: real time   42.9505

 eigenvalue-minimisations  :  4410
 total energy-change (2. order) :-0.1084240E+02  (-0.1068468E+02)
 number of electron     368.0000019 magnetization 
 augmentation part       43.5878480 magnetization 

 Broyden mixing:
  rms(total) = 0.62692E+01    rms(broyden)= 0.62691E+01
  rms(prec ) = 0.68495E+01
  weight for this iteration     100.00

 Free energy of the ion-electron system (eV)
  ---------------------------------------------------
  alpha Z        PSCENC =       552.32592117
  Ewald energy   TEWEN  =     76361.09840993
  -Hartree energ DENC   =    -95970.36369496
  -exchange      EXHF   =         0.00000000
  -V(xc)+E(xc)   XCENC  =     -2977.27586366
  PAW double counting   =     20825.47903073   -16741.43993414
  entropy T*S    EENTRO =        -0.00038647
  eigenvalues    EBANDS =     -4531.08038903
  atomic energy  EATOM  =     21855.45048279
  Solvation  Ediel_sol  =         0.00000000
  ---------------------------------------------------
  free energy    TOTEN  =      -625.80642363 eV

  energy without entropy =     -625.80603717  energy(sigma->0) =     -625.80632702


--------------------------------------------------------------------------------------------------------




--------------------------------------- Iteration      1(   6)  ---------------------------------------


    POTLOK:  cpu time    0.1139: real time    0.1144
    SETDIJ:  cpu time    0.0100: real time    0.0102
     EDDAV:  cpu time   41.1543: real time   41.4692
       DOS:  cpu time    0.0007: real time    0.0007
    CHARGE:  cpu time    0.4823: real time    0.4861
    MIXING:  cpu time    0.0067: real time    0.0121
    --------------------------------------------
      LOOP:  cpu time   41.7678: real time   42.0928

 eigenvalue-minimisations  :  4290
 total energy-change (2. order) :-0.7512613E+02  (-0.1324543E+03)
 number of electron     368.0000005 magnetization 
 augmentation part       74.1774409 magnetization 

 Broyden mixing:
  rms(total) = 0.89651E+01    rms(broyden)= 0.89651E+01
  rms(prec ) = 0.11663E+02
  weight for this iteration     100.00

 eigenvalues of (default mixing * dielectric matrix)
  average eigenvalue GAMMA=   0.3990
  0.3990

 Free energy of the ion-electron system (eV)
  ---------------------------------------------------
  alpha Z        PSCENC =       552.32592117
  Ewald energy   TEWEN  =     76361.09840993
  -Hartree energ DENC   =    -96702.96275382
  -exchange      EXHF   =         0.00000000
  -V(xc)+E(xc)   XCENC  =     -2960.79412091
  PAW double counting   =     24612.06100283   -20526.66617450
  entropy T*S    EENTRO =         0.00810290
  eigenvalues    EBANDS =     -3891.45342244
  atomic energy  EATOM  =     21855.45048279
  Solvation  Ediel_sol  =         0.00000000
  ---------------------------------------------------
  free energy    TOTEN  =      -700.93255205 eV

  energy without entropy =     -700.94065494  energy(sigma->0) =     -700.93457777


--------------------------------------------------------------------------------------------------------




--------------------------------------- Iteration      1(   7)  ---------------------------------------


    POTLOK:  cpu time    0.1220: real time    0.1228
    SETDIJ:  cpu time    0.0073: real time    0.0073
     EDDAV:  cpu time   37.1375: real time   37.3973
       DOS:  cpu time    0.0007: real time    0.0007
    CHARGE:  cpu time    0.4780: real time    0.4807
    MIXING:  cpu time    0.0033: real time    0.0043
    --------------------------------------------
      LOOP:  cpu time   37.7487: real time   38.0131

 eigenvalue-minimisations  :  3810
 total energy-change (2. order) : 0.1004377E+03  (-0.2464508E+03)
 number of electron     368.0000014 magnetization 
 augmentation part       59.6094067 magnetization 

 Broyden mixing:
  rms(total) = 0.48064E+01    rms(broyden)= 0.48064E+01
  rms(prec ) = 0.69509E+01
  weight for this iteration     100.00

 eigenvalues of (default mixing * dielectric matrix)
  average eigenvalue GAMMA=   0.4988
  0.7702  0.2275

 Free energy of the ion-electron system (eV)
  ---------------------------------------------------
  alpha Z        PSCENC =       552.32592117
  Ewald energy   TEWEN  =     76361.09840993
  -Hartree energ DENC   =    -96210.12146224
  -exchange      EXHF   =         0.00000000
  -V(xc)+E(xc)   XCENC  =     -2964.59386516
  PAW double counting   =     24751.09035920   -20681.21869945
  entropy T*S    EENTRO =        -0.00644383
  eigenvalues    EBANDS =     -4264.51954174
  atomic energy  EATOM  =     21855.45048279
  Solvation  Ediel_sol  =         0.00000000
  ---------------------------------------------------
  free energy    TOTEN  =      -600.49483932 eV

  energy without entropy =     -600.48839549  energy(sigma->0) =     -600.49322836


--------------------------------------------------------------------------------------------------------




--------------------------------------- Iteration      1(   8)  ---------------------------------------


    POTLOK:  cpu time    0.1129: real time    0.1136
    SETDIJ:  cpu time    0.0072: real time    0.0072
     EDDAV:  cpu time   37.7494: real time   38.0142
       DOS:  cpu time    0.0006: real time    0.0006
    CHARGE:  cpu time    0.4843: real time    0.4898
    MIXING:  cpu time    0.0037: real time    0.0045
    --------------------------------------------
      LOOP:  cpu time   38.3582: real time   38.6299

 eigenvalue-minimisations  :  3900
 total energy-change (2. order) :-0.3628234E+02  (-0.9255170E+02)
 number of electron     368.0000021 magnetization 
 augmentation part       47.5184572 magnetization 

 Broyden mixing:
  rms(total) = 0.42465E+01    rms(broyden)= 0.42465E+01
  rms(prec ) = 0.74590E+01
  weight for this iteration     100.00

 eigenvalues of (default mixing * dielectric matrix)
  average eigenvalue GAMMA=   0.5356
  1.1272  0.2399  0.2399

 Free energy of the ion-electron system (eV)
  ---------------------------------------------------
  alpha Z        PSCENC =       552.32592117
  Ewald energy   TEWEN  =     76361.09840993
  -Hartree energ DENC   =    -96211.50195687
  -exchange      EXHF   =         0.00000000
  -V(xc)+E(xc)   XCENC  =     -2967.68805631
  PAW double counting   =     25152.88001137   -21096.27915120
  entropy T*S    EENTRO =        -0.00514152
  eigenvalues    EBANDS =     -4283.05769573
  atomic energy  EATOM  =     21855.45048279
  Solvation  Ediel_sol  =         0.00000000
  ---------------------------------------------------
  free energy    TOTEN  =      -636.77717637 eV

  energy without entropy =     -636.77203485  energy(sigma->0) =     -636.77589099


--------------------------------------------------------------------------------------------------------




--------------------------------------- Iteration      1(   9)  ---------------------------------------


    POTLOK:  cpu time    0.1101: real time    0.1107
    SETDIJ:  cpu time    0.0072: real time    0.0073
     EDDAV:  cpu time   41.2078: real time   41.5091
       DOS:  cpu time    0.0007: real time    0.0007
    CHARGE:  cpu time    0.4828: real time    0.4885
    MIXING:  cpu time    0.0045: real time    0.0046
    --------------------------------------------
      LOOP:  cpu time   41.8132: real time   42.1208

 eigenvalue-minimisations  :  4320
 total energy-change (2. order) : 0.4531352E+02  (-0.3028503E+02)
 number of electron     368.0000017 magnetization 
 augmentation part       46.5926759 magnetization 

 Broyden mixing:
  rms(total) = 0.34345E+01    rms(broyden)= 0.34345E+01
  rms(prec ) = 0.51286E+01
  weight for this iteration     100.00

 eigenvalues of (default mixing * dielectric matrix)
  average eigenvalue GAMMA=   0.5108
  1.3291  0.2875  0.2875  0.1390

 Free energy of the ion-electron system (eV)
  ---------------------------------------------------
  alpha Z        PSCENC =       552.32592117
  Ewald energy   TEWEN  =     76361.09840993
  -Hartree energ DENC   =    -96187.30636989
  -exchange      EXHF   =         0.00000000
  -V(xc)+E(xc)   XCENC  =     -2966.37958842
  PAW double counting   =     25611.45073950   -21556.44887983
  entropy T*S    EENTRO =         0.00825020
  eigenvalues    EBANDS =     -4261.66262578
  atomic energy  EATOM  =     21855.45048279
  Solvation  Ediel_sol  =         0.00000000
  ---------------------------------------------------
  free energy    TOTEN  =      -591.46366032 eV

  energy without entropy =     -591.47191052  energy(sigma->0) =     -591.46572287


--------------------------------------------------------------------------------------------------------




--------------------------------------- Iteration      1(  10)  ---------------------------------------


    POTLOK:  cpu time    0.1110: real time    0.1116
    SETDIJ:  cpu time    0.0077: real time    0.0077
     EDDAV:  cpu time   38.0384: real time   38.3061
       DOS:  cpu time    0.0014: real time    0.0014
    CHARGE:  cpu time    0.4728: real time    0.4747
    MIXING:  cpu time    0.0046: real time    0.0046
    --------------------------------------------
      LOOP:  cpu time   38.6358: real time   38.9062

 eigenvalue-minimisations  :  3930
 total energy-change (2. order) : 0.2701919E+02  (-0.1326023E+02)
 number of electron     368.0000017 magnetization 
 augmentation part       48.8103050 magnetization 

 Broyden mixing:
  rms(total) = 0.24759E+01    rms(broyden)= 0.24759E+01
  rms(prec ) = 0.30533E+01
  weight for this iteration     100.00

 eigenvalues of (default mixing * dielectric matrix)
  average eigenvalue GAMMA=   0.5425
  1.5356  0.4047  0.4047  0.2288  0.1384

 Free energy of the ion-electron system (eV)
  ---------------------------------------------------
  alpha Z        PSCENC =       552.32592117
  Ewald energy   TEWEN  =     76361.09840993
  -Hartree energ DENC   =    -96260.11193957
  -exchange      EXHF   =         0.00000000
  -V(xc)+E(xc)   XCENC  =     -2962.68654637
  PAW double counting   =     26271.14520988   -22212.07978342
  entropy T*S    EENTRO =        -0.00144981
  eigenvalues    EBANDS =     -4169.58477320
  atomic energy  EATOM  =     21855.45048279
  Solvation  Ediel_sol  =         0.00000000
  ---------------------------------------------------
  free energy    TOTEN  =      -564.44446859 eV

  energy without entropy =     -564.44301878  energy(sigma->0) =     -564.44410614


--------------------------------------------------------------------------------------------------------




--------------------------------------- Iteration      1(  11)  ---------------------------------------


    POTLOK:  cpu time    0.1072: real time    0.1078
    SETDIJ:  cpu time    0.0080: real time    0.0080
     EDDAV:  cpu time   34.9378: real time   35.2005
       DOS:  cpu time    0.0038: real time    0.0038
    CHARGE:  cpu time    0.5049: real time    0.5071
    MIXING:  cpu time    0.0049: real time    0.0049
    --------------------------------------------
      LOOP:  cpu time   35.5667: real time   35.8321

 eigenvalue-minimisations  :  3570
 total energy-change (2. order) : 0.7900517E+01  (-0.5744501E+01)
 number of electron     368.0000017 magnetization 
 augmentation part       47.9922582 magnetization 

 Broyden mixing:
  rms(total) = 0.19617E+01    rms(broyden)= 0.19617E+01
  rms(prec ) = 0.23004E+01
  weight for this iteration     100.00

 eigenvalues of (default mixing * dielectric matrix)
  average eigenvalue GAMMA=   0.5557
  1.7053  0.5041  0.5041  0.2423  0.2423  0.1364

 Free energy of the ion-electron system (eV)
  ---------------------------------------------------
  alpha Z        PSCENC =       552.32592117
  Ewald energy   TEWEN  =     76361.09840993
  -Hartree energ DENC   =    -96394.56773068
  -exchange      EXHF   =         0.00000000
  -V(xc)+E(xc)   XCENC  =     -2959.18002357
  PAW double counting   =     26930.69586163   -22867.50169821
  entropy T*S    EENTRO =         0.00439757
  eigenvalues    EBANDS =     -4034.86957201
  atomic energy  EATOM  =     21855.45048279
  Solvation  Ediel_sol  =         0.00000000
  ---------------------------------------------------
  free energy    TOTEN  =      -556.54395136 eV

  energy without entropy =     -556.54834894  energy(sigma->0) =     -556.54505076


--------------------------------------------------------------------------------------------------------




--------------------------------------- Iteration      1(  12)  ---------------------------------------


    POTLOK:  cpu time    0.1100: real time    0.1105
    SETDIJ:  cpu time    0.0079: real time    0.0079
     EDDAV:  cpu time   36.5147: real time   36.7698
       DOS:  cpu time    0.0010: real time    0.0010
    CHARGE:  cpu time    0.4775: real time    0.4793
    MIXING:  cpu time    0.0049: real time    0.0049
    --------------------------------------------
      LOOP:  cpu time   37.1158: real time   37.3733

 eigenvalue-minimisations  :  3750
 total energy-change (2. order) : 0.5398027E+01  (-0.1918922E+01)
 number of electron     368.0000016 magnetization 
 augmentation part       49.5554776 magnetization 

 Broyden mixing:
  rms(total) = 0.13395E+01    rms(broyden)= 0.13395E+01
  rms(prec ) = 0.15505E+01
  weight for this iteration     100.00

 eigenvalues of (default mixing * dielectric matrix)
  average eigenvalue GAMMA=   0.5530
  1.7830  0.5878  0.5878  0.2783  0.2783  0.1378  0.2178

 Free energy of the ion-electron system (eV)
  ---------------------------------------------------
  alpha Z        PSCENC =       552.32592117
  Ewald energy   TEWEN  =     76361.09840993
  -Hartree energ DENC   =    -96432.76197142
  -exchange      EXHF   =         0.00000000
  -V(xc)+E(xc)   XCENC  =     -2956.88793096
  PAW double counting   =     27344.02186198   -23274.85288520
  entropy T*S    EENTRO =         0.00345573
  eigenvalues    EBANDS =     -3999.54326791
  atomic energy  EATOM  =     21855.45048279
  Solvation  Ediel_sol  =         0.00000000
  ---------------------------------------------------
  free energy    TOTEN  =      -551.14592388 eV

  energy without entropy =     -551.14937961  energy(sigma->0) =     -551.14678781


--------------------------------------------------------------------------------------------------------




--------------------------------------- Iteration      1(  13)  ---------------------------------------


    POTLOK:  cpu time    0.1290: real time    0.1296
    SETDIJ:  cpu time    0.0074: real time    0.0074
     EDDAV:  cpu time   38.9549: real time   39.2307
       DOS:  cpu time    0.0010: real time    0.0010
    CHARGE:  cpu time    0.4857: real time    0.4877
    MIXING:  cpu time    0.0047: real time    0.0047
    --------------------------------------------
      LOOP:  cpu time   39.5827: real time   39.8611

 eigenvalue-minimisations  :  4020
 total energy-change (2. order) : 0.1865852E+01  (-0.9712033E+00)
 number of electron     368.0000015 magnetization 
 augmentation part       50.4044966 magnetization 

 Broyden mixing:
  rms(total) = 0.95927E+00    rms(broyden)= 0.95926E+00
  rms(prec ) = 0.11545E+01
  weight for this iteration     100.00

 eigenvalues of (default mixing * dielectric matrix)
  average eigenvalue GAMMA=   0.5830
  1.8626  0.7607  0.7607  0.3631  0.3631  0.1373  0.2261  0.1906

 Free energy of the ion-electron system (eV)
  ---------------------------------------------------
  alpha Z        PSCENC =       552.32592117
[...]
     13.493268  6.333961 18.153967     0.463336   -0.038678    0.883148  
 
  10 f  =    8.733911 THz    54.876781 2PiTHz  291.331902 cm-1    36.120565 meV
             X         Y         Z           dx          dy          dz
      8.576308  8.296846 10.398452            0           0           0  
      8.576936  3.760945 15.119636            0           0           0  
      8.506061  6.099800 17.330279            0           0           0  
      8.516162  0.799950 12.438738            0           0           0  
     13.426804  6.129706 15.237169            0           0           0  
     13.490936  1.153156 10.447489            0           0           0  
     10.033436  3.284281 12.674110            0           0           0  
      9.978559  8.604728 17.138003            0           0           0  
      7.125241  5.815767 10.157648            0           0           0  
      7.095036  1.269098 14.939369            0           0           0  
      8.512220  3.280358 10.204496            0           0           0  
      8.548588  8.362223 14.851010            0           0           0  
     10.222632  8.067230 12.779914            0           0           0  
     10.249976  3.876542 17.344919            0           0           0  
      5.426642  8.104815 10.206391            0           0           0  
      5.399698  3.511574 15.029548            0           0           0  
      8.528427  5.754231 12.656400            0           0           0  
      8.638111  1.518993 17.206807            0           0           0  
      3.848293  7.973169 12.472590            0           0           0  
      3.853014  3.537305 17.189761            0           0           0  
      3.844386  5.646494 15.010398            0           0           0  
      3.900631  0.738911 10.000000            0           0           0  
     10.175428  6.051424 14.963596            0           0           0  
     10.191124  1.104695 10.137364            0           0           0  
      6.829455  7.994241 12.666696            0           0           0  
      6.844123  3.617369 17.316132            0           0           0  
     11.487295  6.312452 17.428157            0           0           0  
     11.667723  1.053724 12.575471            0           0           0  
     11.739193  3.338683 10.411988            0           0           0  
     11.742584  8.309509 15.264245            0           0           0  
      7.185217  3.246439 12.753898            0           0           0  
      7.280982  8.565968 17.237584            0           0           0  
      6.857811  5.963544 14.941008            0           0           0  
      6.877947  0.975598 10.086954            0           0           0  
      5.510835  5.550117 12.484188            0           0           0  
      5.482744  1.119833 17.206756            0           0           0  
      3.512495  3.500193 12.835186            0           0           0  
      3.290534  8.778080 17.375191            0           0           0  
      3.467984  5.872368 10.408681            0           0           0  
      3.377727  1.270391 15.182697            0           0           0  
     11.917712  8.216334 10.245339            0           0           0  
     11.912728  3.663477 15.094073            0           0           0  
      5.241350  3.365425 10.326787            0           0           0  
      5.174515  8.338143 15.127135            0           0           0  
      5.314217  6.222454 17.434101            0           0           0  
      5.289302  0.990642 12.608494            0           0           0  
      1.605379  5.844910 12.851215            0           0           0  
      1.370954  1.664936 17.675479            0           0           0  
     13.720378  5.671342 10.182934            0           0           0  
     13.692426  1.076260 15.046188            0           0           0  
      1.634565  8.339874 10.364530            0           0           0  
      1.539884  3.781610 15.293197            0           0           0  
     13.768315  3.161194 12.533077            0           0           0  
     13.749914  8.339841 17.374462            0           0           0  
      1.994404  3.173136 10.176661            0           0           0  
      1.832074  8.052501 15.026552            0           0           0  
     13.480506  8.379299 12.868857            0           0           0  
     13.284262  4.206770 17.832956            0           0           0  
      1.973816  6.020739 17.312700            0           0           0  
      2.027287  0.877370 12.468150            0           0           0  
     10.071711  5.794019 10.146627            0           0           0  
     10.150531  1.246905 14.886879            0           0           0  
     11.970507  5.661807 12.676598            0           0           0  
     11.881781  1.419385 17.581267            0           0           0  
      5.300611  8.541953 17.553420     0.054965    0.114641    0.573875  
     13.467970  2.321654 18.711265     0.000410   -0.028293   -0.028740  
      3.510987  1.335516 17.621929     0.120052    0.346904    0.719756  
     13.493268  6.333961 18.153967     0.006970   -0.003182   -0.003797  
 
  11 f  =    8.353190 THz    52.484638 2PiTHz  278.632403 cm-1    34.546028 meV
             X         Y         Z           dx          dy          dz
      8.576308  8.296846 10.398452            0           0           0  
      8.576936  3.760945 15.119636            0           0           0  
      8.506061  6.099800 17.330279            0           0           0  
      8.516162  0.799950 12.438738            0           0           0  
     13.426804  6.129706 15.237169            0           0           0  
     13.490936  1.153156 10.447489            0           0           0  
     10.033436  3.284281 12.674110            0           0           0  
      9.978559  8.604728 17.138003            0           0           0  
      7.125241  5.815767 10.157648            0           0           0  
      7.095036  1.269098 14.939369            0           0           0  
      8.512220  3.280358 10.204496            0           0           0  
      8.548588  8.362223 14.851010            0           0           0  
     10.222632  8.067230 12.779914            0           0           0  
     10.249976  3.876542 17.344919            0           0           0  
      5.426642  8.104815 10.206391            0           0           0  
      5.399698  3.511574 15.029548            0           0           0  
      8.528427  5.754231 12.656400            0           0           0  
      8.638111  1.518993 17.206807            0           0           0  
      3.848293  7.973169 12.472590            0           0           0  
      3.853014  3.537305 17.189761            0           0           0  
      3.844386  5.646494 15.010398            0           0           0  
      3.900631  0.738911 10.000000            0           0           0  
     10.175428  6.051424 14.963596            0           0           0  
     10.191124  1.104695 10.137364            0           0           0  
      6.829455  7.994241 12.666696            0           0           0  
      6.844123  3.617369 17.316132            0           0           0  
     11.487295  6.312452 17.428157            0           0           0  
     11.667723  1.053724 12.575471            0           0           0  
     11.739193  3.338683 10.411988            0           0           0  
     11.742584  8.309509 15.264245            0           0           0  
      7.185217  3.246439 12.753898            0           0           0  
      7.280982  8.565968 17.237584            0           0           0  
      6.857811  5.963544 14.941008            0           0           0  
      6.877947  0.975598 10.086954            0           0           0  
      5.510835  5.550117 12.484188            0           0           0  
      5.482744  1.119833 17.206756            0           0           0  
      3.512495  3.500193 12.835186            0           0           0  
      3.290534  8.778080 17.375191            0           0           0  
      3.467984  5.872368 10.408681            0           0           0  
      3.377727  1.270391 15.182697            0           0           0  
     11.917712  8.216334 10.245339            0           0           0  
     11.912728  3.663477 15.094073            0           0           0  
      5.241350  3.365425 10.326787            0           0           0  
      5.174515  8.338143 15.127135            0           0           0  
      5.314217  6.222454 17.434101            0           0           0  
      5.289302  0.990642 12.608494            0           0           0  
      1.605379  5.844910 12.851215            0           0           0  
      1.370954  1.664936 17.675479            0           0           0  
     13.720378  5.671342 10.182934            0           0           0  
     13.692426  1.076260 15.046188            0           0           0  
      1.634565  8.339874 10.364530            0           0           0  
      1.539884  3.781610 15.293197            0           0           0  
     13.768315  3.161194 12.533077            0           0           0  
     13.749914  8.339841 17.374462            0           0           0  
      1.994404  3.173136 10.176661            0           0           0  
      1.832074  8.052501 15.026552            0           0           0  
     13.480506  8.379299 12.868857            0           0           0  
     13.284262  4.206770 17.832956            0           0           0  
      1.973816  6.020739 17.312700            0           0           0  
      2.027287  0.877370 12.468150            0           0           0  
     10.071711  5.794019 10.146627            0           0           0  
     10.150531  1.246905 14.886879            0           0           0  
     11.970507  5.661807 12.676598            0           0           0  
     11.881781  1.419385 17.581267            0           0           0  
      5.300611  8.541953 17.553420    -0.065742   -0.222716   -0.757053  
     13.467970  2.321654 18.711265     0.006801   -0.010390   -0.020296  
      3.510987  1.335516 17.621929     0.080670    0.056584    0.602076  
     13.493268  6.333961 18.153967     0.011037   -0.002472    0.006953  
 
  12 f  =    7.187089 THz    45.157812 2PiTHz  239.735474 cm-1    29.723421 meV
             X         Y         Z           dx          dy          dz
      8.576308  8.296846 10.398452            0           0           0  
      8.576936  3.760945 15.119636            0           0           0  
      8.506061  6.099800 17.330279            0           0           0  
      8.516162  0.799950 12.438738            0           0           0  
     13.426804  6.129706 15.237169            0           0           0  
     13.490936  1.153156 10.447489            0           0           0  
     10.033436  3.284281 12.674110            0           0           0  
      9.978559  8.604728 17.138003            0           0           0  
      7.125241  5.815767 10.157648            0           0           0  
      7.095036  1.269098 14.939369            0           0           0  
      8.512220  3.280358 10.204496            0           0           0  
      8.548588  8.362223 14.851010            0           0           0  
     10.222632  8.067230 12.779914            0           0           0  
     10.249976  3.876542 17.344919            0           0           0  
      5.426642  8.104815 10.206391            0           0           0  
      5.399698  3.511574 15.029548            0           0           0  
      8.528427  5.754231 12.656400            0           0           0  
      8.638111  1.518993 17.206807            0           0           0  
      3.848293  7.973169 12.472590            0           0           0  
      3.853014  3.537305 17.189761            0           0           0  
      3.844386  5.646494 15.010398            0           0           0  
      3.900631  0.738911 10.000000            0           0           0  
     10.175428  6.051424 14.963596            0           0           0  
     10.191124  1.104695 10.137364            0           0           0  
      6.829455  7.994241 12.666696            0           0           0  
      6.844123  3.617369 17.316132            0           0           0  
     11.487295  6.312452 17.428157            0           0           0  
     11.667723  1.053724 12.575471            0           0           0  
     11.739193  3.338683 10.411988            0           0           0  
     11.742584  8.309509 15.264245            0           0           0  
      7.185217  3.246439 12.753898            0           0           0  
      7.280982  8.565968 17.237584            0           0           0  
      6.857811  5.963544 14.941008            0           0           0  
      6.877947  0.975598 10.086954            0           0           0  
      5.510835  5.550117 12.484188            0           0           0  
      5.482744  1.119833 17.206756            0           0           0  
      3.512495  3.500193 12.835186            0           0           0  
      3.290534  8.778080 17.375191            0           0           0  
      3.467984  5.872368 10.408681            0           0           0  
      3.377727  1.270391 15.182697            0           0           0  
     11.917712  8.216334 10.245339            0           0           0  
     11.912728  3.663477 15.094073            0           0           0  
      5.241350  3.365425 10.326787            0           0           0  
      5.174515  8.338143 15.127135            0           0           0  
      5.314217  6.222454 17.434101            0           0           0  
      5.289302  0.990642 12.608494            0           0           0  
      1.605379  5.844910 12.851215            0           0           0  
      1.370954  1.664936 17.675479            0           0           0  
     13.720378  5.671342 10.182934            0           0           0  
     13.692426  1.076260 15.046188            0           0           0  
      1.634565  8.339874 10.364530            0           0           0  
      1.539884  3.781610 15.293197            0           0           0  
     13.768315  3.161194 12.533077            0           0           0  
     13.749914  8.339841 17.374462            0           0           0  
      1.994404  3.173136 10.176661            0           0           0  
      1.832074  8.052501 15.026552            0           0           0  
     13.480506  8.379299 12.868857            0           0           0  
     13.284262  4.206770 17.832956            0           0           0  
      1.973816  6.020739 17.312700            0           0           0  
      2.027287  0.877370 12.468150            0           0           0  
     10.071711  5.794019 10.146627            0           0           0  
     10.150531  1.246905 14.886879            0           0           0  
     11.970507  5.661807 12.676598            0           0           0  
     11.881781  1.419385 17.581267            0           0           0  
      5.300611  8.541953 17.553420     0.001318   -0.002820   -0.000801  
     13.467970  2.321654 18.711265     0.011852    0.038606   -0.009437  
      3.510987  1.335516 17.621929     0.002240    0.010387    0.008351  
     13.493268  6.333961 18.153967    -0.869558    0.171398    0.461062  
 
 Finite differences POTIM=  1.500000000000000E-002
  LATTYP: Found a simple orthorhombic cell.
 ALAT       =     9.5644817352
 B/A-ratio  =     1.4398428730
 C/A-ratio  =     2.8922184390
  
  Lattice vectors:
  
 A1 = (   0.0000000000,  -9.5644817352,   0.0000000000)
 A2 = ( -13.7713508606,   0.0000000000,   0.0000000000)
 A3 = (   0.0000000000,   0.0000000000, -27.6625704340)


Analysis of symmetry for initial positions (statically):
=====================================================================
 Subroutine PRICEL returns:
 Original cell was already a primitive cell.
 

 Routine SETGRP: Setting up the symmetry group for a 
 simple orthorhombic supercell.


 Subroutine GETGRP returns: Found  1 space group operations
 (whereof  1 operations were pure point group operations)
 out of a pool of  8 trial point group operations.


The static configuration has the point symmetry C_1 .


Analysis of symmetry for dynamics (positions and initial velocities):
=====================================================================
 Subroutine PRICEL returns:
 Original cell was already a primitive cell.
 

 Routine SETGRP: Setting up the symmetry group for a 
 simple orthorhombic supercell.


 Subroutine GETGRP returns: Found  1 space group operations
 (whereof  1 operations were pure point group operations)
 out of a pool of  8 trial point group operations.


The dynamic configuration has the point symmetry C_1 .


Analysis of constrained symmetry for selective dynamics:
=====================================================================
 Subroutine PRICEL returns:
 Original cell was already a primitive cell.
 

 Routine SETGRP: Setting up the symmetry group for a 
 simple orthorhombic supercell.


 Subroutine GETGRP returns: Found  1 space group operations
 (whereof  1 operations were pure point group operations)
 out of a pool of  8 trial point group operations.


The constrained configuration has the point symmetry C_1 .


 Subroutine INISYM returns: Found  1 space group operations
 (whereof  1 operations are pure point group operations),
 and found     1 'primitive' translations

 
 KPOINTS: k-points                                

Automatic generation of k-mesh.
Space group operators:
 irot       det(A)        alpha          n_x          n_y          n_z        tau_x        tau_y        tau_z
    1     1.000000     0.000001     1.000000     0.000000     0.000000     0.000000     0.000000     0.000000
 
 Subroutine IBZKPT returns following result:
 ===========================================
 
 Found      5 irreducible k-points:
 
 Following reciprocal coordinates:
            Coordinates               Weight
  0.000000  0.000000  0.000000      1.000000
  0.333333  0.000000  0.000000      2.000000
  0.000000  0.333333  0.000000      2.000000
  0.333333  0.333333  0.000000      2.000000
 -0.333333  0.333333  0.000000      2.000000
 
 Following cartesian coordinates:
            Coordinates               Weight
  0.000000  0.000000  0.000000      1.000000
  0.024205  0.000000  0.000000      2.000000
  0.000000  0.034851  0.000000      2.000000
  0.024205  0.034851  0.000000      2.000000
 -0.024205  0.034851  0.000000      2.000000
 
     LOOP+:  cpu time  331.2335: real time  333.6439
    4ORBIT:  cpu time    0.0000: real time    0.0000

 total amount of memory used by VASP MPI-rank0   834421. kBytes
=======================================================================

   base      :      30000. kBytes
   nonl-proj :     658045. kBytes
   fftplans  :      11449. kBytes
   grid      :      55342. kBytes
   one-center:       1057. kBytes
   wavefun   :      78528. kBytes
 
  
  
 General timing and accounting informations for this job:
 ========================================================
  
                  Total CPU time used (sec):    12844.933
                            User time (sec):    12785.430
                          System time (sec):       59.503
                         Elapsed time (sec):    12936.695
  
                   Maximum memory used (kb):     1075956.
                   Average memory used (kb):           0.
  
                          Minor page faults:      2741335
                          Major page faults:           55
                 Voluntary context switches:        70972
