 vasp.5.4.1 05Feb16 (build Mar 19 2020 08:54:17) complex                        
  
 executed on           IFC91_ompi date 2021.10.24  13:04:37
 running on   96 total cores
 distrk:  each k-point on   96 cores,    1 groups
 distr:  one band on NCORES_PER_BAND=  48 cores,    2 groups


--------------------------------------------------------------------------------------------------------


 INCAR:
 POTCAR:    PAW_PBE Al 04Jan2001                  
 POTCAR:    PAW_PBE Nb_sv 25May2007               
 POTCAR:    PAW_PBE Ta 17Jan2003                  
 POTCAR:    PAW_PBE Ti 08Apr2002                  
 POTCAR:   PAW_PBE Zr 08Apr2002                   
 POTCAR:    PAW_PBE O 08Apr2002                   

 ----------------------------------------------------------------------------- 
|                                                                             |
|           W    W    AA    RRRRR   N    N  II  N    N   GGGG   !!!           |
|           W    W   A  A   R    R  NN   N  II  NN   N  G    G  !!!           |
|           W    W  A    A  R    R  N N  N  II  N N  N  G       !!!           |
|           W WW W  AAAAAA  RRRRR   N  N N  II  N  N N  G  GGG   !            |
|           WW  WW  A    A  R   R   N   NN  II  N   NN  G    G                |
|           W    W  A    A  R    R  N    N  II  N    N   GGGG   !!!           |
|                                                                             |
|      For optimal performance we recommend to set                            |
|        NCORE= 4 - approx SQRT( number of cores)                             |
|      NCORE specifies how many cores store one orbital (NPAR=cpu/NCORE).     |
|      This setting can  greatly improve the performance of VASP for DFT.     |
|      The default, NPAR=number of cores might be grossly inefficient         |
|      on modern multi-core architectures or massively parallel machines.     |
|      Do your own testing !!!!                                               |
|      Unfortunately you need to use the default for GW and RPA calculations. |
|      (for HF NCORE is supported but not extensively tested yet)             |
|                                                                             |
 ----------------------------------------------------------------------------- 

 POTCAR:    PAW_PBE Al 04Jan2001                  
   VRHFIN =Al: s2p1                                                             
   LEXCH  = PE                                                                  
   EATOM  =    53.5387 eV,    3.9350 Ry                                         
                                                                                
   TITEL  = PAW_PBE Al 04Jan2001                                                
   LULTRA =        F    use ultrasoft PP ?                                      
   IUNSCR =        1    unscreen: 0-lin 1-nonlin 2-no                           
   RPACOR =    1.500    partial core radius                                     
   POMASS =   26.981; ZVAL   =    3.000    mass and valenz                      
   RCORE  =    1.900    outmost cutoff radius                                   
   RWIGS  =    2.650; RWIGS  =    1.402    wigner-seitz radius (au A)           
   ENMAX  =  240.300; ENMIN  =  180.225 eV                                      
   ICORE  =        2    local potential                                         
   LCOR   =        T    correct aug charges                                     
   LPAW   =        T    paw PP                                                  
   EAUG   =  291.052                                                            
   DEXC   =    0.000                                                            
   RMAX   =    1.939    core radius for proj-oper                               
   RAUG   =    1.300    factor for augmentation sphere                          
   RDEP   =    1.966    radius for radial grids                                 
   RDEPT  =    1.856    core radius for aug-charge                              
                                                                                
   Atomic configuration                                                         
    6 entries                                                                   
     n  l   j            E        occ.                                          
     1  0  0.50     -1511.1048   2.0000                                         
     2  0  0.50      -108.1629   2.0000                                         
     2  1  1.50       -69.6402   6.0000                                         
     3  0  0.50        -7.7528   2.0000                                         
     3  1  1.50        -2.7121   1.0000                                         
     3  2  2.50        -2.7212   0.0000                                         
   Description                                                                  
     l       E           TYP  RCUT    TYP  RCUT                                 
     0     -7.7528455     23  1.900                                             
     0     -3.3096929     23  1.900                                             
     1     -2.7120682     23  1.900                                             
     1     13.6058260     23  1.900                                             
     2     -2.7211652      7  1.900                                             
  local pseudopotential read in
  partial core-charges read in
  partial kinetic energy density read in
  atomic valenz-charges read in
  non local Contribution for L=           0  read in
    real space projection operators read in
  non local Contribution for L=           0  read in
    real space projection operators read in
  non local Contribution for L=           1  read in
    real space projection operators read in
  non local Contribution for L=           1  read in
    real space projection operators read in
    PAW grid and wavefunctions read in
 
   number of l-projection  operators is LMAX  =           4
   number of lm-projection operators is LMMAX =           8
 
 POTCAR:    PAW_PBE Nb_sv 25May2007               
   VRHFIN =Nb: 4p5s4d                                                           
   LEXCH  = PE                                                                  
   EATOM  =  1555.1913 eV,  114.3033 Ry                                         
                                                                                
   TITEL  = PAW_PBE Nb_sv 25May2007                                             
   LULTRA =        F    use ultrasoft PP ?                                      
   IUNSCR =        1    unscreen: 0-lin 1-nonlin 2-no                           
   RPACOR =    1.800    partial core radius                                     
   POMASS =   92.910; ZVAL   =   13.000    mass and valenz                      
   RCORE  =    2.400    outmost cutoff radius                                   
   RWIGS  =    2.400; RWIGS  =    1.270    wigner-seitz radius (au A)           
   ENMAX  =  293.235; ENMIN  =  219.927 eV                                      
   ICORE  =        3    local potential                                         
   LCOR   =        T    correct aug charges                                     
   LPAW   =        T    paw PP                                                  
   EAUG   =  455.659                                                            
   DEXC   =    0.000                                                            
   RMAX   =    2.456    core radius for proj-oper                               
   RAUG   =    1.300    factor for augmentation sphere                          
   RDEP   =    2.451    radius for radial grids                                 
   RDEPT  =    1.956    core radius for aug-charge                              
                                                                                
   Atomic configuration                                                         
   11 entries                                                                   
     n  l   j            E        occ.                                          
     1  0  0.50    -18805.2457   2.0000                                         
     2  0  0.50     -2630.2869   2.0000                                         
     2  1  1.50     -2348.4046   6.0000                                         
     3  0  0.50      -438.8757   2.0000                                         
     3  1  1.50      -346.7588   6.0000                                         
     3  2  2.50      -196.2560  10.0000                                         
     4  0  0.50       -58.3859   2.0000                                         
     5  0  0.50        -3.9816   1.0000                                         
     4  1  1.50       -34.5141   6.0000                                         
     4  2  2.50        -3.0408   4.0000                                         
     4  3  2.50        -1.3606   0.0000                                         
   Description                                                                  
     l       E           TYP  RCUT    TYP  RCUT                                 
     0    -58.3859094     23  2.200                                             
     0     -3.9816262     23  2.200                                             
     1    -34.5140738     23  2.200                                             
     1     13.6058260     23  2.200                                             
     2     -3.0408010     23  2.200                                             
     2     -0.1283038     23  2.200                                             
     3     -1.3605826     23  2.400                                             
  local pseudopotential read in
  partial core-charges read in
  partial kinetic energy density read in
  atomic valenz-charges read in
  non local Contribution for L=           0  read in
    real space projection operators read in
  non local Contribution for L=           0  read in
    real space projection operators read in
  non local Contribution for L=           1  read in
    real space projection operators read in
  non local Contribution for L=           1  read in
    real space projection operators read in
  non local Contribution for L=           2  read in
    real space projection operators read in
  non local Contribution for L=           2  read in
    real space projection operators read in
    PAW grid and wavefunctions read in
 
   number of l-projection  operators is LMAX  =           6
   number of lm-projection operators is LMMAX =          18
 
 POTCAR:    PAW_PBE Ta 17Jan2003                  
   VRHFIN =Ta:  6s5d                                                            
   LEXCH  = PE                                                                  
   EATOM  =   130.6506 eV,    9.6025 Ry                                         
                                                                                
   TITEL  = PAW_PBE Ta 17Jan2003                                                
   LULTRA =        F    use ultrasoft PP ?                                      
   IUNSCR =        1    unscreen: 0-lin 1-nonlin 2-no                           
   RPACOR =    2.330    partial core radius                                     
   POMASS =  180.948; ZVAL   =    5.000    mass and valenz                      
   RCORE  =    2.900    outmost cutoff radius                                   
   RWIGS  =    2.840; RWIGS  =    1.503    wigner-seitz radius (au A)           
   ENMAX  =  223.667; ENMIN  =  167.750 eV                                      
   RCLOC  =    2.205    cutoff for local pot                                    
   LCOR   =        T    correct aug charges                                     
   LPAW   =        T    paw PP                                                  
   EAUG   =  332.075                                                            
   DEXC   =    0.000                                                            
   RMAX   =    2.970    core radius for proj-oper                               
   RAUG   =    1.300    factor for augmentation sphere                          
   RDEP   =    3.060    radius for radial grids                                 
   RDEPT  =    2.354    core radius for aug-charge                              
                                                                                
   Atomic configuration                                                         
   16 entries                                                                   
     n  l   j            E        occ.                                          
     1  0  0.50    -67341.2807   2.0000                                         
     2  0  0.50    -11566.9376   2.0000                                         
     2  1  1.50    -10134.1182   6.0000                                         
     3  0  0.50     -2648.5620   2.0000                                         
     3  1  1.50     -2222.6012   6.0000                                         
     3  2  2.50     -1726.3120  10.0000                                         
     4  0  0.50      -538.6961   2.0000                                         
     4  1  1.50      -399.0129   6.0000                                         
     4  2  2.50      -220.3959  10.0000                                         
     4  3  3.50       -23.0374  14.0000                                         
     5  0  0.50       -71.2901   2.0000                                         
     5  1  1.50       -37.8225   6.0000                                         
     5  2  2.50        -2.6455   4.0000                                         
     6  0  0.50        -4.9623   1.0000                                         
     6  1  1.50        -1.3606   0.0000                                         
     5  3  2.50        -1.3606   0.0000                                         
   Description                                                                  
     l       E           TYP  RCUT    TYP  RCUT                                 
     2     -2.6455043     23  2.500                                             
     2     -0.6258895     23  2.500                                             
     0     -4.9622780     23  2.500                                             
     0      4.7531321     23  2.500                                             
     1     -1.3605826     23  2.900                                             
     1     27.2116520     23  2.900                                             
  local pseudopotential read in
  partial core-charges read in
  partial kinetic energy density read in
  atomic valenz-charges read in
  non local Contribution for L=           2  read in
    real space projection operators read in
  non local Contribution for L=           2  read in
    real space projection operators read in
  non local Contribution for L=           0  read in
    real space projection operators read in
  non local Contribution for L=           0  read in
    real space projection operators read in
  non local Contribution for L=           1  read in
    real space projection operators read in
  non local Contribution for L=           1  read in
    real space projection operators read in
    PAW grid and wavefunctions read in
 
   number of l-projection  operators is LMAX  =           6
   number of lm-projection operators is LMMAX =          18
 
 POTCAR:    PAW_PBE Ti 08Apr2002                  
   VRHFIN =Ti: d3 s1                                                            
   LEXCH  = PE                                                                  
   EATOM  =    94.7928 eV,    6.9671 Ry                                         
                                                                                
   TITEL  = PAW_PBE Ti 08Apr2002                                                
   LULTRA =        F    use ultrasoft PP ?                                      
   IUNSCR =        1    unscreen: 0-lin 1-nonlin 2-no                           
   RPACOR =    2.200    partial core radius                                     
   POMASS =   47.880; ZVAL   =    4.000    mass and valenz                      
   RCORE  =    2.800    outmost cutoff radius                                   
   RWIGS  =    2.500; RWIGS  =    1.323    wigner-seitz radius (au A)           
   ENMAX  =  178.330; ENMIN  =  133.747 eV                                      
   RCLOC  =    2.215    cutoff for local pot                                    
   LCOR   =        T    correct aug charges                                     
   LPAW   =        T    paw PP                                                  
   EAUG   =  328.883                                                            
   DEXC   =    0.000                                                            
   RMAX   =    2.868    core radius for proj-oper                               
   RAUG   =    1.300    factor for augmentation sphere                          
   RDEP   =    2.885    radius for radial grids                                 
   RDEPT  =    2.320    core radius for aug-charge                              
                                                                                
   Atomic configuration                                                         
    9 entries                                                                   
     n  l   j            E        occ.                                          
     1  0  0.50     -4865.3608   2.0000                                         
     2  0  0.50      -533.1367   2.0000                                         
     2  1  1.50      -440.5031   6.0000                                         
     3  0  0.50       -59.3186   2.0000                                         
     3  1  1.50       -35.7012   6.0000                                         
     3  2  2.50        -1.9157   3.0000                                         
     4  0  0.50        -3.7291   1.0000                                         
     4  1  1.50        -4.0817   0.0000                                         
     4  3  2.50        -1.3606   0.0000                                         
   Description                                                                  
     l       E           TYP  RCUT    TYP  RCUT                                 
     2     -1.9156924     23  2.800                                             
     2     -0.4062961     23  2.800                                             
     0     -3.7290832     23  2.800                                             
     0     20.4087390     23  2.800                                             
     1     -5.4423304     23  2.800                                             
  local pseudopotential read in
  partial core-charges read in
  partial kinetic energy density read in
  atomic valenz-charges read in
  non local Contribution for L=           2  read in
    real space projection operators read in
  non local Contribution for L=           2  read in
    real space projection operators read in
  non local Contribution for L=           0  read in
    real space projection operators read in
  non local Contribution for L=           0  read in
    real space projection operators read in
  non local Contribution for L=           1  read in
    real space projection operators read in
    PAW grid and wavefunctions read in
 
   number of l-projection  operators is LMAX  =           5
   number of lm-projection operators is LMMAX =          15
 
 POTCAR:   PAW_PBE Zr 08Apr2002                   
   VRHFIN =Zr: 5s4d5p                                                           
   LEXCH  = PE                                                                  
   EATOM  =    77.8472 eV,    5.7216 Ry                                         
                                                                                
   TITEL  = PAW_PBE Zr 08Apr2002                                                
   LULTRA =        F    use ultrasoft PP ?                                      
   IUNSCR =        1    unscreen: 0-lin 1-nonlin 2-no                           
   RPACOR =    2.200    partial core radius                                     
   POMASS =   91.224; ZVAL   =    4.000    mass and valenz                      
   RCORE  =    3.000    outmost cutoff radius                                   
   RWIGS  =    3.070; RWIGS  =    1.625    wigner-seitz radius (au A)           
   ENMAX  =  154.632; ENMIN  =  115.974 eV                                      
   RCLOC  =    2.213    cutoff for local pot                                    
   LCOR   =        T    correct aug charges                                     
   LPAW   =        T    paw PP                                                  
   EAUG   =  243.217                                                            
   DEXC   =    -.082                                                            
   RMAX   =    3.708    core radius for proj-oper                               
   RAUG   =    1.300    factor for augmentation sphere                          
   RDEP   =    3.146    radius for radial grids                                 
   QCUT   =   -3.371; QGAM   =    6.742    optimization parameters              
                                                                                
   Description                                                                  
     l     E      TYP  RCUT    TYP  RCUT                                        
     2   .000     23  3.000                                                     
     2   .000     23  3.000                                                     
     0   .000     23  3.000                                                     
     0  2.000     23  3.000                                                     
     1  -.400     23  3.000                                                     
     3   .000      7   .000                                                     
  local pseudopotential read in
  partial core-charges read in
  atomic valenz-charges read in
  non local Contribution for L=           2  read in
    real space projection operators read in
  non local Contribution for L=           2  read in
    real space projection operators read in
  non local Contribution for L=           0  read in
    real space projection operators read in
  non local Contribution for L=           0  read in
    real space projection operators read in
  non local Contribution for L=           1  read in
    real space projection operators read in
    PAW grid and wavefunctions read in
 
   number of l-projection  operators is LMAX  =           5
   number of lm-projection operators is LMMAX =          15
 
 POTCAR:    PAW_PBE O 08Apr2002                   
   VRHFIN =O: s2p4                                                              
   LEXCH  = PE                                                                  
   EATOM  =   432.3788 eV,   31.7789 Ry                                         
                                                                                
   TITEL  = PAW_PBE O 08Apr2002                                                 
   LULTRA =        F    use ultrasoft PP ?                                      
   IUNSCR =        1    unscreen: 0-lin 1-nonlin 2-no                           
   RPACOR =    1.200    partial core radius                                     
   POMASS =   16.000; ZVAL   =    6.000    mass and valenz                      
   RCORE  =    1.520    outmost cutoff radius                                   
   RWIGS  =    1.550; RWIGS  =    0.820    wigner-seitz radius (au A)           
   ENMAX  =  400.000; ENMIN  =  300.000 eV                                      
   ICORE  =        2    local potential                                         
   LCOR   =        T    correct aug charges                                     
   LPAW   =        T    paw PP                                                  
   EAUG   =  605.392                                                            
   DEXC   =    0.000                                                            
   RMAX   =    1.553    core radius for proj-oper                               
   RAUG   =    1.300    factor for augmentation sphere                          
   RDEP   =    1.550    radius for radial grids                                 
   RDEPT  =    1.329    core radius for aug-charge                              
                                                                                
   Atomic configuration                                                         
    4 entries                                                                   
     n  l   j            E        occ.                                          
     1  0  0.50      -514.6923   2.0000                                         
     2  0  0.50       -23.9615   2.0000                                         
     2  1  0.50        -9.0305   4.0000                                         
     3  2  1.50        -9.5241   0.0000                                         
   Description                                                                  
     l       E           TYP  RCUT    TYP  RCUT                                 
     0    -23.9615318     23  1.200                                             
     0     -9.5240782     23  1.200                                             
     1     -9.0304911     23  1.520                                             
     1      8.1634956     23  1.520                                             
     2     -9.5240782      7  1.500                                             
  local pseudopotential read in
  partial core-charges read in
  partial kinetic energy density read in
  kinetic energy density of atom read in
  atomic valenz-charges read in
  non local Contribution for L=           0  read in
    real space projection operators read in
  non local Contribution for L=           0  read in
    real space projection operators read in
  non local Contribution for L=           1  read in
    real space projection operators read in
  non local Contribution for L=           1  read in
    real space projection operators read in
    PAW grid and wavefunctions read in
 
   number of l-projection  operators is LMAX  =           4
   number of lm-projection operators is LMMAX =           8
 

 ----------------------------------------------------------------------------- 
|                                                                             |
|  ADVICE TO THIS USER RUNNING 'VASP/VAMP'   (HEAR YOUR MASTER'S VOICE ...):  |
|                                                                             |
|      You have a (more or less) 'large supercell' and for larger cells       |
|      it might be more efficient to use real space projection opertators     |
|      So try LREAL= Auto  in the INCAR   file.                               |
|      Mind: At the moment your POTCAR file does not contain real space       |
|       projectors, and has to be modified,  BUT if you                       |
|      want to do an extremely  accurate calculation you might also keep the  |
|      reciprocal projection scheme          (i.e. LREAL=.FALSE.)             |
|                                                                             |
 ----------------------------------------------------------------------------- 

 WARNING: PSMAXN for non-local potential too small
          PSMAXN should be >   12.5490833729506       NTYP=           5
  PAW_PBE Al 04Jan2001                  :
 energy of atom  1       EATOM=  -53.5387
 kinetic energy error for atom=    0.0002 (will be added to EATOM!!)
  PAW_PBE Nb_sv 25May2007               :
 energy of atom  2       EATOM=-1555.1913
 kinetic energy error for atom=    0.0037 (will be added to EATOM!!)
  PAW_PBE Ta 17Jan2003                  :
 energy of atom  3       EATOM= -130.6506
 kinetic energy error for atom=    0.0004 (will be added to EATOM!!)
  PAW_PBE Ti 08Apr2002                  :
 energy of atom  4       EATOM=  -94.7928
 kinetic energy error for atom=    0.0001 (will be added to EATOM!!)
 PAW_PBE Zr 08Apr2002                   :
 energy of atom  5       EATOM=  -77.8472
 kinetic energy error for atom=    0.0001 (will be added to EATOM!!)
  PAW_PBE O 08Apr2002                   :
 energy of atom  6       EATOM= -432.3788
 kinetic energy error for atom=    0.0168 (will be added to EATOM!!)
 
 
 POSCAR: Al Nb Ta Ti Zr                          
  positions in direct lattice
  velocities in cartesian coordinates
 exchange correlation table for  LEXCH =        8
   RHO(1)=    0.500       N(1)  =     2000
   RHO(2)=  100.500       N(2)  =     4000
 


--------------------------------------------------------------------------------------------------------


 ion  position               nearest neighbor table
   1  0.623  0.867  0.376-  34 2.83  25 2.88  24 2.88   9 2.88  13 2.90   4 2.91  61 2.93  15 3.16
                            41 3.35  17 3.40
   2  0.623  0.402  0.546-  31 2.79  33 2.80   3 2.88   7 2.89  23 2.89  26 2.89  14 2.91  10 2.96
                            62 2.98  17 3.10  42 3.34
   3  0.636  0.629  0.614-  75 1.89  23 2.63  32 2.68  14 2.69   8 2.69  33 2.88   2 2.88  27 2.90
                            26 3.03  12 3.07
   4  0.618  0.084  0.450-  31 2.80  24 2.86  34 2.87  13 2.88   1 2.91  25 2.92   7 2.92  62 2.99
                            10 3.08  28 3.16  46 3.24
   5  0.975  0.638  0.552-  30 2.84  27 2.89  42 2.93  56 2.94  63 3.01  52 3.03  47 3.12  23 3.13
                            59 3.17  54 3.28  57 3.32  58 3.37
   6  0.980  0.121  0.378-  29 2.80  28 2.80  53 2.91  41 2.96  51 3.05  55 3.05  60 3.08  57 3.37

   7  0.729  0.343  0.458-  28 2.77  29 2.83  31 2.85   2 2.89  17 2.89  11 2.90   4 2.92  63 3.07
                            62 3.08  42 3.12
   8  0.718  0.883  0.623-  77 2.09  71 2.11  18 2.68  30 2.68   3 2.69  12 2.71  27 2.73  32 2.77
                            64 3.01  62 3.26
   9  0.517  0.608  0.367-  35 2.84  15 2.85  17 2.87   1 2.88  11 2.89  61 2.95  43 3.10
  10  0.508  0.140  0.545-  16 2.77  36 2.88  18 2.89   2 2.96  12 2.98  31 3.01  46 3.01  62 3.04
                             4 3.08  44 3.10
  11  0.618  0.343  0.369-  24 2.75  34 2.83  31 2.87   9 2.89   7 2.90  61 2.96  43 3.27
  12  0.613  0.867  0.541-   8 2.71  33 2.80  25 2.81  13 2.82  23 2.86  32 2.88  62 2.97  10 2.98
                             3 3.07  44 3.27
  13  0.742  0.843  0.462-  12 2.82  23 2.85  17 2.87   4 2.88   1 2.90  28 2.94  63 2.98  30 3.04
                            41 3.05  57 3.27
  14  0.733  0.394  0.635-  76 1.96  74 1.99   3 2.69   2 2.91  27 2.96  42 3.03  64 3.07  18 3.09
                            58 3.11
  15  0.394  0.847  0.369-  22 2.68  19 2.76  25 2.83  34 2.84   9 2.85  39 2.98   1 3.16  46 3.43

  16  0.387  0.372  0.545-  21 2.63  10 2.77  26 2.80  20 2.82  33 2.88  37 2.89  40 2.92  31 2.98

  17  0.619  0.602  0.458-  33 2.79  25 2.81  31 2.85   9 2.87  13 2.87  23 2.87   7 2.89  61 2.95
                            35 3.03   2 3.10   1 3.40  63 3.44
  18  0.615  0.119  0.634-  72 2.00  71 2.06  74 2.06   8 2.68  10 2.89  32 2.92  36 2.97  62 2.99
                            26 3.04  14 3.09  64 3.30
  19  0.279  0.834  0.451-  15 2.76  35 2.94  46 2.96  39 2.97  44 2.98  25 2.99  60 3.07  51 3.08
                            47 3.12  21 3.24  56 3.28
  20  0.276  0.348  0.630-  69 2.00  70 2.04  67 2.15  16 2.82  36 2.94  48 3.04  26 3.07  45 3.07
                            40 3.08  52 3.13  59 3.17
  21  0.276  0.592  0.533-  16 2.63  35 2.85  45 2.90  37 2.91  47 2.91  52 2.99  33 3.04  44 3.07
                            56 3.07  19 3.24  59 3.39
  22  0.283  0.077  0.361-  15 2.68  46 2.97  43 2.97  34 2.99  51 3.02  55 3.10  60 3.10
  23  0.749  0.642  0.538-   3 2.63  30 2.76  63 2.79  13 2.85  12 2.86  17 2.87   2 2.89  27 2.93
                            42 3.01   5 3.13
  24  0.740  0.115  0.366-  29 2.73  11 2.75  28 2.85   4 2.86   1 2.88  41 3.00
  25  0.496  0.836  0.458-  35 2.78  17 2.81  12 2.81  15 2.83   1 2.88   4 2.92  33 2.94  44 2.98
                            19 2.99  46 2.99
  26  0.497  0.387  0.630-  70 1.96  74 2.04  75 2.25  16 2.80   2 2.89   3 3.03  18 3.04  20 3.07
                            36 3.07  45 3.12
  27  0.842  0.662  0.633-  76 1.99  77 2.10  68 2.14   8 2.73  58 2.81   5 2.89   3 2.90  23 2.93
                            14 2.96  30 3.01  54 3.11
  28  0.847  0.110  0.455-   7 2.77   6 2.80  24 2.85  57 2.90  62 2.92  13 2.94  53 2.98  50 3.08
                            29 3.15   4 3.16  41 3.36
  29  0.852  0.349  0.376-  24 2.73   6 2.80   7 2.83  53 2.94  61 2.98  49 3.07  28 3.15  63 3.25

  30  0.857  0.880  0.555-  77 2.25   8 2.68  23 2.76   5 2.84  50 2.94  62 2.99  57 3.00  27 3.01
                            13 3.04  54 3.23  64 3.28
  31  0.522  0.339  0.461-   2 2.79   4 2.80  17 2.85   7 2.85  35 2.86  11 2.87  46 2.95  16 2.98
                            10 3.01  43 3.11
  32  0.519  0.847  0.633-  72 2.00  65 2.07  75 2.18   3 2.68   8 2.77  12 2.88  36 2.91  45 2.92
                            18 2.92  44 3.14
  33  0.495  0.629  0.537-  35 2.74  17 2.79  12 2.80   2 2.80  16 2.88   3 2.88  44 2.90  25 2.94
                            21 3.04  45 3.13
  34  0.499  0.102  0.365-  11 2.83   1 2.83  15 2.84   4 2.87  43 2.91  46 2.98  22 2.99
  35  0.400  0.580  0.451-  33 2.74  25 2.78   9 2.84  21 2.85  31 2.86  37 2.88  39 2.93  19 2.94
                            17 3.03  43 3.08
  36  0.401  0.098  0.633-  72 1.96  70 2.02  67 2.05  65 2.16  10 2.88  32 2.91  20 2.94  18 2.97
                            38 2.99  26 3.07  40 3.15  44 3.22
  37  0.255  0.366  0.464-  35 2.88  16 2.89  21 2.91  47 3.02  60 3.04  43 3.05  55 3.08  46 3.08
                            52 3.13  40 3.17  39 3.39
  38  0.226  0.913  0.635-  73 1.88  65 2.03  67 2.07  56 2.86  54 2.89  36 2.99  48 3.02  59 3.16
                            45 3.16  44 3.22  40 3.26
  39  0.252  0.614  0.376-  35 2.93  19 2.97  15 2.98  47 3.07  43 3.07  51 3.07  55 3.08  37 3.39
                            49 3.53
  40  0.253  0.137  0.547-  67 2.37  16 2.92  44 3.01  60 3.06  20 3.08  52 3.10  46 3.12  36 3.15
                            37 3.17  48 3.22  38 3.26  56 3.27  50 3.58
  41  0.865  0.859  0.370-   6 2.96  24 3.00  61 3.05  13 3.05  57 3.06  49 3.12   1 3.35  28 3.36
                            51 3.49  63 3.53
  42  0.864  0.376  0.548-   5 2.93  23 3.01  62 3.02  14 3.03  58 3.10  50 3.11   7 3.12  63 3.22
                            53 3.24   2 3.34  52 3.44  64 3.47
  43  0.381  0.352  0.373-  34 2.91  22 2.97  37 3.05  39 3.07  35 3.08   9 3.10  31 3.11  55 3.26
                            11 3.27  46 3.29
  44  0.375  0.877  0.546-  65 2.32  33 2.90  19 2.98  25 2.98  40 3.01  21 3.07  10 3.10  32 3.14
                            45 3.16  36 3.22  38 3.22  12 3.27  46 3.31  56 3.32
  45  0.360  0.646  0.628-  69 2.07  75 2.11  65 2.22  21 2.90  32 2.92  20 3.07  26 3.12  59 3.12
                            33 3.13  38 3.16  44 3.16
  46  0.384  0.104  0.456-  31 2.95  19 2.96  22 2.97  34 2.98  25 2.99  10 3.01  37 3.08  40 3.12
                             4 3.24  60 3.27  43 3.29  44 3.31  15 3.43
  47  0.117  0.611  0.465-  21 2.91  37 3.02  39 3.07  19 3.12   5 3.12  56 3.13  53 3.14  49 3.15
                            57 3.17  52 3.21  63 3.42  51 3.52  55 3.80
  48  0.095  0.167  0.632-  66 2.09  67 2.20  50 2.98  38 3.02  20 3.04  52 3.09  54 3.11  58 3.14
                            40 3.22  64 3.33
  49  0.996  0.593  0.368-  63 3.05  29 3.07  41 3.12  47 3.15  51 3.16  55 3.23  53 3.44  39 3.53
                            61 3.65  57 3.82
  50  0.994  0.112  0.539-  30 2.94  48 2.98  57 3.04  28 3.08  42 3.11  53 3.16  52 3.17  60 3.23
                            56 3.25  64 3.35  40 3.58  62 3.67  54 3.68
  51  0.119  0.872  0.375-  60 3.00  22 3.02   6 3.05  39 3.07  19 3.08  57 3.16  49 3.16  41 3.49
                            47 3.52
  52  0.114  0.392  0.552-  21 2.99   5 3.03  59 3.09  48 3.09  40 3.10  37 3.13  20 3.13  50 3.17
                            47 3.21  53 3.21  42 3.44  58 3.44
  53  1.000  0.331  0.453-   6 2.91  29 2.94  28 2.98  60 3.06  63 3.08  55 3.09  47 3.14  50 3.16
                            52 3.21  42 3.24  49 3.44
  54  0.019  0.862  0.639-  77 2.09  73 2.17  68 2.19  38 2.89  59 2.90  56 3.07  48 3.11  27 3.11
                            30 3.23   5 3.28  64 3.38  50 3.68
  55  0.145  0.332  0.368-   6 3.05  37 3.08  39 3.08  53 3.09  22 3.10  49 3.23  60 3.24  43 3.26
                            47 3.80
  56  0.135  0.840  0.545-  38 2.86   5 2.94  54 3.07  21 3.07  57 3.11  47 3.13  50 3.25  40 3.27
                            19 3.28  59 3.30  44 3.32  60 3.56
  57  0.979  0.876  0.465-  28 2.90  30 3.00  50 3.04  41 3.06  56 3.11  63 3.11  60 3.13  51 3.16
                            47 3.17  13 3.27   5 3.32   6 3.37  49 3.82
  58  0.957  0.423  0.648-  66 2.06  76 2.13  68 2.19  27 2.81  59 3.06  42 3.10  14 3.11  48 3.14
                            64 3.19   5 3.37  52 3.44
  59  0.135  0.610  0.634-  69 2.13  73 2.18  68 2.19  54 2.90  58 3.06  52 3.09  45 3.12  38 3.16
                            20 3.17   5 3.17  56 3.30  21 3.39
  60  0.147  0.092  0.451-  51 3.00  37 3.04  53 3.06  40 3.06  19 3.07   6 3.08  22 3.10  57 3.13
                            50 3.23  55 3.24  46 3.27  56 3.56
  61  0.731  0.606  0.367-   1 2.93  17 2.95   9 2.95  11 2.96  29 2.98  41 3.05  63 3.17  49 3.65

  62  0.728  0.130  0.542-  28 2.92  12 2.97   2 2.98  18 2.99   4 2.99  30 2.99  42 3.02  10 3.04
                             7 3.08  64 3.19   8 3.26  50 3.67
  63  0.869  0.592  0.458-  23 2.79  13 2.98   5 3.01  49 3.05   7 3.07  53 3.08  57 3.11  61 3.17
                            42 3.22  29 3.25  47 3.42  17 3.44  41 3.53
  64  0.855  0.125  0.638-  71 2.11  66 2.15  77 2.38   8 3.01  14 3.07  62 3.19  58 3.19  30 3.28
                            18 3.30  48 3.33  50 3.35  54 3.38  42 3.47
  65  0.371  0.877  0.630-  38 2.03  32 2.07  36 2.16  45 2.22  44 2.32
  66  0.975  0.223  0.674-  58 2.06  48 2.09  64 2.15
  67  0.253  0.126  0.632-  36 2.05  38 2.07  20 2.15  48 2.20  40 2.37
  68  0.987  0.646  0.660-  27 2.14  58 2.19  54 2.19  59 2.19
  69  0.263  0.527  0.667-  20 2.00  45 2.07  59 2.13
  70  0.398  0.286  0.666-  26 1.96  36 2.02  20 2.04
  71  0.731  0.047  0.674-  18 2.06   8 2.11  64 2.11
  72  0.509  0.025  0.671-  36 1.96  32 2.00  18 2.00
  73  0.151  0.801  0.676-  38 1.88  54 2.17  59 2.18
  74  0.615  0.313  0.666-  14 1.99  26 2.04  18 2.06
  75  0.510  0.620  0.640-   3 1.89  45 2.11  32 2.18  26 2.25
  76  0.823  0.499  0.677-  14 1.96  27 1.99  58 2.13
  77  0.867  0.877  0.636-  54 2.09   8 2.09  27 2.10  30 2.25  64 2.38
 
  LATTYP: Found a simple orthorhombic cell.
 ALAT       =     9.5644817352
 B/A-ratio  =     1.4398428730
 C/A-ratio  =     2.8922184390
  
  Lattice vectors:
  
 A1 = (   0.0000000000,  -9.5644817352,   0.0000000000)
 A2 = ( -13.7713508606,   0.0000000000,   0.0000000000)
 A3 = (   0.0000000000,   0.0000000000, -27.6625704340)


Analysis of symmetry for initial positions (statically):
=====================================================================
 Subroutine PRICEL returns:
 Original cell was already a primitive cell.
 

 Routine SETGRP: Setting up the symmetry group for a 
 simple orthorhombic supercell.


 Subroutine GETGRP returns: Found  1 space group operations
 (whereof  1 operations were pure point group operations)
 out of a pool of  8 trial point group operations.


The static configuration has the point symmetry C_1 .


Analysis of symmetry for dynamics (positions and initial velocities):
=====================================================================
 Subroutine PRICEL returns:
 Original cell was already a primitive cell.
 

 Routine SETGRP: Setting up the symmetry group for a 
 simple orthorhombic supercell.


 Subroutine GETGRP returns: Found  1 space group operations
 (whereof  1 operations were pure point group operations)
 out of a pool of  8 trial point group operations.


The dynamic configuration has the point symmetry C_1 .


Analysis of constrained symmetry for selective dynamics:
=====================================================================
 Subroutine PRICEL returns:
 Original cell was already a primitive cell.
 

 Routine SETGRP: Setting up the symmetry group for a 
 simple orthorhombic supercell.


 Subroutine GETGRP returns: Found  1 space group operations
 (whereof  1 operations were pure point group operations)
 out of a pool of  8 trial point group operations.


The constrained configuration has the point symmetry C_1 .


 Subroutine INISYM returns: Found  1 space group operations
 (whereof  1 operations are pure point group operations),
 and found     1 'primitive' translations

 
 
 KPOINTS: k-points                                

Automatic generation of k-mesh.
Space group operators:
 irot       det(A)        alpha          n_x          n_y          n_z        tau_x        tau_y        tau_z
    1     1.000000     0.000000     1.000000     0.000000     0.000000     0.000000     0.000000     0.000000
 
 Subroutine IBZKPT returns following result:
 ===========================================
 
 Found      5 irreducible k-points:
 
 Following reciprocal coordinates:
            Coordinates               Weight
  0.000000  0.000000  0.000000      1.000000
  0.333333  0.000000  0.000000      2.000000
  0.000000  0.333333  0.000000      2.000000
  0.333333  0.333333  0.000000      2.000000
 -0.333333  0.333333  0.000000      2.000000
 
 Following cartesian coordinates:
            Coordinates               Weight
  0.000000  0.000000  0.000000      1.000000
  0.024205  0.000000  0.000000      2.000000
  0.000000  0.034851  0.000000      2.000000
  0.024205  0.034851  0.000000      2.000000
 -0.024205  0.034851  0.000000      2.000000
 


--------------------------------------------------------------------------------------------------------




 Dimension of arrays:
   k-points           NKPTS =      5   k-points in BZ     NKDIM =      5   number of bands    NBANDS=    254
   number of dos      NEDOS =    301   number of ions     NIONS =     77
   non local maximal  LDIM  =      6   non local SUM 2l+1 LMDIM =     18
   total plane-waves  NPLWV = 846720
   max r-space proj   IRMAX =      1   max aug-charges    IRDMAX=  25433
   dimension x,y,z NGX =    84 NGY =   60 NGZ =  168
   dimension x,y,z NGXF=   168 NGYF=  120 NGZF=  336
   support grid    NGXF=   168 NGYF=  120 NGZF=  336
   ions per type =               6  10   4  18  26  13
 NGX,Y,Z   is equivalent  to a cutoff of  10.14, 10.43, 10.10 a.u.
 NGXF,Y,Z  is equivalent  to a cutoff of  20.28, 20.86, 20.19 a.u.


 I would recommend the setting:
   dimension x,y,z NGX =    83 NGY =   57 NGZ =  166
 SYSTEM =  (110) surface                           
 POSCAR =  Al Nb Ta Ti Zr                          

 Startparameter for this run:
   NWRITE =      2    write-flag & timer
   PREC   = normal    normal or accurate (medium, high low for compatibility)
   ISTART =      0    job   : 0-new  1-cont  2-samecut
   ICHARG =      2    charge: 1-file 2-atom 10-const
   ISPIN  =      1    spin polarized calculation?
   LNONCOLLINEAR =      F non collinear calculations
   LSORBIT =      F    spin-orbit coupling
   INIWAV =      1    electr: 0-lowe 1-rand  2-diag
   LASPH  =      F    aspherical Exc in radial PAW
   METAGGA=      F    non-selfconsistent MetaGGA calc.

 Electronic Relaxation 1
   ENCUT  =  600.0 eV  44.10 Ry    6.64 a.u.  27.50 19.10 55.25*2*pi/ulx,y,z
   ENINI  =  600.0     initial cutoff
   ENAUG  =  605.4 eV  augmentation charge cutoff
   NELM   =     60;   NELMIN=  2; NELMDL= -5     # of ELM steps 
   EDIFF  = 0.1E-03   stopping-criterion for ELM
   LREAL  =      F    real-space projection
   NLSPLINE    = F    spline interpolate recip. space projectors
   LCOMPAT=      F    compatible to vasp.4.4
   GGA_COMPAT  = T    GGA compatible to vasp.4.4-vasp.4.6
   LMAXPAW     = -100 max onsite density
   LMAXMIX     =    2 max onsite mixed and CHGCAR
   VOSKOWN=      0    Vosko Wilk Nusair interpolation
   ROPT   =    0.00000   0.00000   0.00000   0.00000
   ROPT   =    0.00000   0.00000
 Ionic relaxation
   EDIFFG = -.1E-01   stopping-criterion for IOM
   NSW    =    150    number of steps for IOM
   NBLOCK =      1;   KBLOCK =    150    inner block; outer block 
   IBRION =      2    ionic relax: 0-MD 1-quasi-New 2-CG
   NFREE  =      1    steps in history (QN), initial steepest desc. (CG)
   ISIF   =      2    stress and relaxation
   IWAVPR =     11    prediction:  0-non 1-charg 2-wave 3-comb
   ISYM   =      2    0-nonsym 1-usesym 2-fastsym
   LCORR  =      T    Harris-Foulkes like correction to forces

   POTIM  = 0.1000    time-step for ionic-motion
   TEIN   =    0.0    initial temperature
   TEBEG  =    0.0;   TEEND  =   0.0 temperature during run
   SMASS  =  -3.00    Nose mass-parameter (am)
   estimated Nose-frequenzy (Omega)   =  0.10E-29 period in steps =****** mass=  -0.433E-26a.u.
   SCALEE = 1.0000    scale energy and forces
   NPACO  =    256;   APACO  = 16.0  distance and # of slots for P.C.
   PSTRESS=    0.0 pullay stress

  Mass of Ions in am
   POMASS =  26.98 92.91180.95 47.88 91.22 16.00
  Ionic Valenz
   ZVAL   =   3.00 13.00  5.00  4.00  4.00  6.00
  Atomic Wigner-Seitz radii
   RWIGS  =  -1.00 -1.00 -1.00 -1.00 -1.00 -1.00
  virtual crystal weights 
   VCA    =   1.00  1.00  1.00  1.00  1.00  1.00
   NELECT =     422.0000    total number of electrons
   NUPDOWN=      -1.0000    fix difference up-down

 DOS related values:
   EMIN   =  10.00;   EMAX   =-10.00  energy-range for DOS
   EFERMI =   0.00
   ISMEAR =     2;   SIGMA  =   0.10  broadening in eV -4-tet -1-fermi 0-gaus

 Electronic relaxation 2 (details)
   IALGO  =     68    algorithm
   LDIAG  =      T    sub-space diagonalisation (order eigenvalues)
   LSUBROT=      F    optimize rotation matrix (better conditioning)
   TURBO    =      0    0=normal 1=particle mesh
   IRESTART =      0    0=no restart 2=restart with 2 vectors
   NREBOOT  =      0    no. of reboots
   NMIN     =      0    reboot dimension
   EREF     =   0.00    reference energy to select bands
   IMIX   =      4    mixing-type and parameters
     AMIX     =   0.40;   BMIX     =  1.00
     AMIX_MAG =   1.60;   BMIX_MAG =  1.00
     AMIN     =   0.10
     WC   =   100.;   INIMIX=   1;  MIXPRE=   1;  MAXMIX= -45

 Intra band minimization:
   WEIMIN = 0.0010     energy-eigenvalue tresh-hold
   EBREAK =  0.98E-07  absolut break condition
   DEPER  =   0.30     relativ break condition  

   TIME   =   0.40     timestep for ELM

  volume/ion in A,a.u.               =      47.32       319.33
  Fermi-wavevector in a.u.,A,eV,Ry     =   0.797999  1.507999  8.664215  0.636802
  Thomas-Fermi vector in A             =   1.904824
 
 Write flags
   LWAVE  =      F    write WAVECAR
   LCHARG =      F    write CHGCAR
   LVTOT  =      F    write LOCPOT, total local potential
   LVHAR  =      F    write LOCPOT, Hartree potential only
   LELF   =      F    write electronic localiz. function (ELF)
   LORBIT =      0    0 simple, 1 ext, 2 COOP (PROOUT)


 Dipole corrections
   LMONO  =      F    monopole corrections only (constant potential shift)
   LDIPOL =      F    correct potential (dipole corrections)
   IDIPOL =      0    1-x, 2-y, 3-z, 4-all directions 
   EPSILON=  1.0000000 bulk dielectric constant

 Exchange correlation treatment:
   GGA     =    --    GGA type
   LEXCH   =     8    internal setting for exchange type
   VOSKOWN=      0    Vosko Wilk Nusair interpolation
   LHFCALC =     F    Hartree Fock is set to
   LHFONE  =     F    Hartree Fock one center treatment
   AEXX    =    0.0000 exact exchange contribution

 Linear response parameters
   LEPSILON=     F    determine dielectric tensor
   LRPA    =     F    only Hartree local field effects (RPA)
   LNABLA  =     F    use nabla operator in PAW spheres
   LVEL    =     F    velocity operator in full k-point grid
   LINTERFAST=   F  fast interpolation
   KINTER  =     0    interpolate to denser k-point grid
   CSHIFT  =0.1000    complex shift for real part using Kramers Kronig
   OMEGAMAX=  -1.0    maximum frequency
   DEG_THRESHOLD= 0.2000000E-02 threshold for treating states as degnerate
   RTIME   =    0.100 relaxation time in fs

 Orbital magnetization related:
   ORBITALMAG=     F  switch on orbital magnetization
   LCHIMAG   =     F  perturbation theory with respect to B field
   DQ        =  0.001000  dq finite difference perturbation B field



--------------------------------------------------------------------------------------------------------


 conjugate gradient relaxation of ions
   using selective dynamics as specified on POSCAR
 charge density and potential will be updated during run
 non-spin polarized calculation
 RMM-DIIS sequential band-by-band and
  variant of blocked Davidson during initial phase
 perform sub-space diagonalisation
    before iterative eigenvector-optimisation
 modified Broyden-mixing scheme, WC =      100.0
 initial mixing is a Kerker type mixing with AMIX =  0.4000 and BMIX =      1.0000
 Hartree-type preconditioning will be used
 using additional bands           43
 reciprocal scheme for non local part
 use partial core corrections
 calculate Harris-corrections to forces 
   (improved forces if not selfconsistent)
 use gradient corrections 
 use of overlap-Matrix (Vanderbilt PP)
 Methfessel and Paxton  Order N= 2 SIGMA  =   0.10


--------------------------------------------------------------------------------------------------------


  energy-cutoff  :      600.00
  volume of cell :     3643.60
      direct lattice vectors                 reciprocal lattice vectors
    13.771350861  0.000000000  0.000000000     0.072614518  0.000000000  0.000000000
     0.000000000  9.564481735  0.000000000     0.000000000  0.104553496  0.000000000
     0.000000000  0.000000000 27.662570434     0.000000000  0.000000000  0.036149931

  length of vectors
    13.771350861  9.564481735 27.662570434     0.072614518  0.104553496  0.036149931


 
 k-points in units of 2pi/SCALE and weight: k-points                                
   0.00000000  0.00000000  0.00000000       0.111
   0.02420484  0.00000000  0.00000000       0.222
   0.00000000  0.03485117  0.00000000       0.222
   0.02420484  0.03485117  0.00000000       0.222
  -0.02420484  0.03485117  0.00000000       0.222
 
 k-points in reciprocal lattice and weights: k-points                                
   0.00000000  0.00000000  0.00000000       0.111
   0.33333333  0.00000000  0.00000000       0.222
   0.00000000  0.33333333  0.00000000       0.222
   0.33333333  0.33333333  0.00000000       0.222
  -0.33333333  0.33333333  0.00000000       0.222
 
 position of ions in fractional coordinates (direct lattice) 
   0.62276447  0.86746430  0.37590333
   0.62257541  0.40173008  0.54587906
   0.63551770  0.62926544  0.61394341
   0.61839700  0.08363760  0.44965952
   0.97471445  0.63771010  0.55224495
   0.97963780  0.12056648  0.37767599
   0.72857308  0.34338307  0.45816820
   0.71799301  0.88336864  0.62304752
   0.51739597  0.60805875  0.36719826
   0.50771982  0.13962651  0.54459901
   0.61811078  0.34297293  0.36889183
   0.61275392  0.86726255  0.54057812
   0.74231148  0.84345710  0.46199300
   0.73348463  0.39416332  0.63537314
   0.39405298  0.84738672  0.36896032
   0.38735663  0.37231365  0.54488276
   0.61928761  0.60162497  0.45752798
   0.61549870  0.11925781  0.63393373
   0.27944195  0.83362269  0.45088327
   0.27614381  0.34847234  0.63002721
   0.27574606  0.59236914  0.53330258
   0.28324246  0.07725573  0.36149931
   0.74906808  0.64160457  0.53761004
   0.74002355  0.11549973  0.36646499
   0.49591756  0.83582580  0.45790018
   0.49744159  0.38729228  0.62964284
   0.84162521  0.66157483  0.63280595
   0.84724605  0.11017048  0.45460239
   0.85243583  0.34907103  0.37639265
   0.85650787  0.88042533  0.55498374
   0.52175105  0.33942658  0.46105252
   0.51938031  0.84682147  0.63348208
   0.49515406  0.62896148  0.53671976
   0.49943882  0.10200214  0.36464270
   0.40016663  0.58028412  0.45130253
   0.40053077  0.09831684  0.63283467
   0.25505811  0.36595738  0.46399110
   0.22562521  0.91314520  0.63453852
   0.25182599  0.61397660  0.37627308
   0.25251192  0.13688857  0.54682454
   0.86539888  0.85904646  0.37036829
   0.86417787  0.37624134  0.54760911
   0.38059813  0.35186696  0.37331264
   0.37545688  0.87690563  0.54617300
   0.35992408  0.64598003  0.62760918
   0.38408008  0.10357511  0.45579618
   0.11657381  0.61110574  0.46457054
   0.09506264  0.16676180  0.63204665
   0.99629861  0.59295863  0.36811234
   0.99397311  0.11153874  0.53878819
   0.11869311  0.87196302  0.37467704
   0.11363140  0.39160475  0.55218492
   0.99977952  0.33051389  0.45306987
   0.01879730  0.86178312  0.63916425
   0.14482272  0.33176249  0.36788561
   0.13545439  0.83962322  0.54511264
   0.97888047  0.87608504  0.46520830
   0.95701332  0.42339618  0.64849333
   0.13529443  0.60979222  0.63394112
   0.14721048  0.09173214  0.45072276
   0.73135245  0.60578495  0.36679988
   0.72803369  0.12994441  0.54162010
   0.86923259  0.59196168  0.45825814
   0.85502679  0.12533202  0.63796821
   0.37079273  0.87701678  0.63003385
   0.97520213  0.22264419  0.67441956
   0.25261770  0.12625199  0.63229057
   0.98666921  0.64566006  0.65963422
   0.26261134  0.52680653  0.66719858
   0.39770523  0.28575913  0.66613320
   0.73124100  0.04674105  0.67365898
   0.50923195  0.02461940  0.67091796
   0.15122477  0.80097702  0.67624244
   0.61516631  0.31342698  0.66605847
   0.50960634  0.61980878  0.64048142
   0.82322389  0.49943118  0.67674090
   0.86744506  0.87730129  0.63625982
 
 position of ions in cartesian coordinates  (Angst):
   8.57630799  8.29684649 10.39845223
   8.57370437  3.84234005 15.10041801
   8.75193717  6.01859776 16.98325281
   8.51616202  0.79995025 12.43873821
  13.42313467  6.09936657 15.27651482
  13.49093588  1.15315590 10.44748880
  10.03343557  3.28428114 12.67411000
   9.88773366  8.44896322 17.23509600
   7.12524148  5.81576681 10.15764776
   6.99198776  1.33545516 15.06500859
   8.51222037  3.28035836 10.20449636
   8.43844927  8.29491680 14.95378018
  10.22263181  8.06723005 12.77991378
  10.10107413  3.76996785 17.57605412
   5.42664188  8.10481479 10.20639088
   5.33442411  3.56098710 15.07285786
   8.52842696  5.75423100 12.65640004
   8.47624849  1.14063911 17.53623639
   3.84829318  7.97316903 12.47259035
   3.80287329  3.33295735 17.42817207
   3.79739577  5.66570382 14.75252008
   3.90063135  0.73891098 10.00000000
  10.31567935  6.13661516 14.87167573
  10.19112400  1.10469510 10.13736353
   6.82945470  7.99424061 12.66669595
   6.85044264  3.70424998 17.41753932
  11.59031606  6.32762034 17.50503926
  11.66772263  1.05372358 12.57547056
  11.73919286  3.33868345 10.41198829
  11.79527043  8.42081198 15.35227679
   7.18521672  3.24643930 12.75389771
   7.15256849  8.09940850 17.52374277
   6.81894028  6.01569060 14.84704812
   6.87794726  0.97559764 10.08695433
   5.51083508  5.55011685 12.48418803
   5.51584976  0.94034960 17.50583366
   3.51249472  3.50019267 12.83518635
   3.10716399  8.73376059 17.55296639
   3.46798404  5.87236796 10.40868071
   3.47743028  1.30926818 15.12657246
  11.91771166  8.21633417 10.24533883
  11.90089663  3.59855344 15.14827565
   5.24135036  3.36542512 10.32678719
   5.17054846  8.38714786 15.10854895
   4.95664073  6.17846417 17.36128321
   5.28930157  0.99064225 12.60849381
   1.60537885  5.84490969 12.85121538
   1.30914103  1.59499021 17.48403499
  13.72037774  5.67134198 10.18293350
  13.68835242  1.06681022 14.90426636
   1.63456451  8.33987442 10.36453009
   1.56485793  3.74549646 15.27485434
  13.76831459  3.16119411 12.53307716
   0.25886417  8.24250888 17.68092610
   1.99440444  3.17313630 10.17666150
   1.86539000  8.03056096 15.07921688
  13.48050634  8.37929939 12.86885734
  13.17936617  4.04956498 17.93899250
   1.86318700  5.83234652 17.53644081
   2.02728715  0.87737042 12.46815015
  10.07171117  5.79401911 10.14662739
  10.02600741  1.24285091 14.98260404
  11.97050705  5.66180669 12.67659812
  11.77487397  1.19873580 17.64784055
   5.10631682  8.38821095 17.42835573
  13.42985064  2.12947629 18.65617862
   3.47888702  1.20753484 17.49078247
  13.58776784  6.17540382 18.24717813
   3.61651288  5.03863148 18.45642765
   5.47693832  2.73313796 18.42695661
  10.07017640  0.44705392 18.63513905
   7.01281180  0.23547176 18.55931531
   2.08256930  7.66093007 18.70660405
   8.47167107  2.99776659 18.42488929
   7.01796767  5.92814974 17.71736236
  11.33690505  4.77680038 18.72039276
  11.94589023  8.39093219 17.60058199
 


--------------------------------------------------------------------------------------------------------


 k-point  1 :   0.0000 0.0000 0.0000  plane waves:  121663
 k-point  2 :   0.3333 0.0000 0.0000  plane waves:  121577
 k-point  3 :   0.0000 0.3333 0.0000  plane waves:  121622
 k-point  4 :   0.3333 0.3333 0.0000  plane waves:  121647
 k-point  5 :  -0.3333 0.3333 0.0000  plane waves:  121647

 maximum and minimum number of plane-waves per node :      2568     2510

 maximum number of plane-waves:    121663
 maximum index in each direction: 
   IXMAX=   27   IYMAX=   19   IZMAX=   55
   IXMIN=  -27   IYMIN=  -19   IZMIN=  -55

 WARNING: aliasing errors must be expected set NGX to 110 to avoid them
 WARNING: aliasing errors must be expected set NGY to  78 to avoid them
 WARNING: aliasing errors must be expected set NGZ to 222 to avoid them
 aliasing errors are usually negligible using standard VASP settings
 and one can safely disregard these warnings

 parallel 3D FFT for wavefunctions:
    minimum data exchange during FFTs selected (reduces bandwidth)
 parallel 3D FFT for charge:
    minimum data exchange during FFTs selected (reduces bandwidth)


 total amount of memory used by VASP on root node    81438. kBytes
========================================================================

   base      :      30000. kBytes
   nonl-proj :      14079. kBytes
   fftplans  :       3278. kBytes
   grid      :       7939. kBytes
   one-center:         31. kBytes
   wavefun   :      26111. kBytes
 
     INWAV:  cpu time    0.0000: real time    0.0000
 Broyden mixing: mesh for mixing (old mesh)
   NGX = 55   NGY = 39   NGZ =111
  (NGX  =168   NGY  =120   NGZ  =336)
  gives a total of 238095 points

 initial charge density was supplied:
 charge density of overlapping atoms calculated
 number of electron     422.0000000 magnetization 
 keeping initial charge density in first step


--------------------------------------------------------------------------------------------------------


 Maximum index for augmentation-charges         1033 (set IRDMAX)


--------------------------------------------------------------------------------------------------------


 First call to EWALD:  gamma=   0.115
 Maximum number of real-space cells 3x 4x 2
 Maximum number of reciprocal cells 3x 2x 5

 FEWALD executed in parallel
    FEWALD:  cpu time    0.0024: real time    0.0024


----------------------------------------- Iteration    1(   1)  ---------------------------------------


    POTLOK:  cpu time    0.0564: real time    0.0577
    SETDIJ:  cpu time    0.0123: real time    0.0128
     EDDAV:  cpu time   10.8626: real time   10.8984
       DOS:  cpu time    0.0017: real time    0.0017
    --------------------------------------------
      LOOP:  cpu time   10.9359: real time   10.9780

 eigenvalue-minimisations  :  2668
 total energy-change (2. order) : 0.5197359E+04  (-0.1587819E+05)
 number of electron     422.0000000 magnetization 
 augmentation part      422.0000000 magnetization 

 Free energy of the ion-electron system (eV)
  ---------------------------------------------------
  alpha Z        PSCENC =       657.51421373
  Ewald energy   TEWEN  =     93896.35950691
  -Hartree energ DENC   =   -117042.79265672
  -exchange      EXHF   =         0.00000000
  -V(xc)+E(xc)   XCENC  =     -2726.53551339
  PAW double counting   =     23944.42432274   -19876.57326215
  entropy T*S    EENTRO =        -0.00144631
  eigenvalues    EBANDS =       598.25571573
  atomic energy  EATOM  =     25746.70830626
  Solvation  Ediel_sol  =         0.00000000
  ---------------------------------------------------
  free energy    TOTEN  =      5197.35918680 eV

  energy without entropy =     5197.36063311  energy(sigma->0) =     5197.35954838


--------------------------------------------------------------------------------------------------------




----------------------------------------- Iteration    1(   2)  ---------------------------------------


     EDDAV:  cpu time   10.9739: real time   10.9875
       DOS:  cpu time    0.0016: real time    0.0016
    --------------------------------------------
      LOOP:  cpu time   10.9770: real time   10.9918

 eigenvalue-minimisations  :  2720
 total energy-change (2. order) :-0.4521464E+04  (-0.4389073E+04)
 number of electron     422.0000000 magnetization 
 augmentation part      422.0000000 magnetization 

 Free energy of the ion-electron system (eV)
  ---------------------------------------------------
  alpha Z        PSCENC =       657.51421373
  Ewald energy   TEWEN  =     93896.35950691
  -Hartree energ DENC   =   -117042.79265672
  -exchange      EXHF   =         0.00000000
  -V(xc)+E(xc)   XCENC  =     -2726.53551339
  PAW double counting   =     23944.42432274   -19876.57326215
  entropy T*S    EENTRO =        -0.00069449
  eigenvalues    EBANDS =     -3923.20950008
  atomic energy  EATOM  =     25746.70830626
  Solvation  Ediel_sol  =         0.00000000
  ---------------------------------------------------
  free energy    TOTEN  =       675.89472281 eV

  energy without entropy =      675.89541730  energy(sigma->0) =      675.89489643


--------------------------------------------------------------------------------------------------------




----------------------------------------- Iteration    1(   3)  ---------------------------------------


     EDDAV:  cpu time   17.0249: real time   17.0291
       DOS:  cpu time    0.0016: real time    0.0016
    --------------------------------------------
      LOOP:  cpu time   17.0277: real time   17.0335

 eigenvalue-minimisations  :  4680
 total energy-change (2. order) :-0.1210485E+04  (-0.1173187E+04)
 number of electron     422.0000000 magnetization 
 augmentation part      422.0000000 magnetization 

 Free energy of the ion-electron system (eV)
  ---------------------------------------------------
  alpha Z        PSCENC =       657.51421373
  Ewald energy   TEWEN  =     93896.35950691
  -Hartree energ DENC   =   -117042.79265672
  -exchange      EXHF   =         0.00000000
  -V(xc)+E(xc)   XCENC  =     -2726.53551339
  PAW double counting   =     23944.42432274   -19876.57326215
  entropy T*S    EENTRO =        -0.00243479
  eigenvalues    EBANDS =     -5133.69272962
  atomic energy  EATOM  =     25746.70830626
  Solvation  Ediel_sol  =         0.00000000
  ---------------------------------------------------
  free energy    TOTEN  =      -534.59024702 eV

  energy without entropy =     -534.58781223  energy(sigma->0) =     -534.58963833


--------------------------------------------------------------------------------------------------------




----------------------------------------- Iteration    1(   4)  ---------------------------------------


     EDDAV:  cpu time   14.6187: real time   14.6471
       DOS:  cpu time    0.0018: real time    0.0018
    --------------------------------------------
      LOOP:  cpu time   14.6217: real time   14.6517

 eigenvalue-minimisations  :  3912
 total energy-change (2. order) :-0.1803310E+03  (-0.1745494E+03)
 number of electron     422.0000000 magnetization 
 augmentation part      422.0000000 magnetization 

 Free energy of the ion-electron system (eV)
  ---------------------------------------------------
  alpha Z        PSCENC =       657.51421373
  Ewald energy   TEWEN  =     93896.35950691
  -Hartree energ DENC   =   -117042.79265672
  -exchange      EXHF   =         0.00000000
  -V(xc)+E(xc)   XCENC  =     -2726.53551339
  PAW double counting   =     23944.42432274   -19876.57326215
  entropy T*S    EENTRO =        -0.00716010
  eigenvalues    EBANDS =     -5314.01899697
  atomic energy  EATOM  =     25746.70830626
  Solvation  Ediel_sol  =         0.00000000
  ---------------------------------------------------
  free energy    TOTEN  =      -714.92123968 eV

  energy without entropy =     -714.91407958  energy(sigma->0) =     -714.91944966


--------------------------------------------------------------------------------------------------------




----------------------------------------- Iteration    1(   5)  ---------------------------------------


     EDDAV:  cpu time   17.0755: real time   17.0801
       DOS:  cpu time    0.0016: real time    0.0016
    CHARGE:  cpu time    0.2369: real time    0.2380
    MIXING:  cpu time    0.0054: real time    0.0056
    --------------------------------------------
      LOOP:  cpu time   17.3207: real time   17.3282

 eigenvalue-minimisations  :  4696
 total energy-change (2. order) :-0.1749895E+02  (-0.1707324E+02)
 number of electron     422.0000089 magnetization 
 augmentation part       50.0602536 magnetization 

 Broyden mixing:
  rms(total) = 0.75796E+01    rms(broyden)= 0.75795E+01
  rms(prec ) = 0.80508E+01
  weight for this iteration     100.00

 Free energy of the ion-electron system (eV)
  ---------------------------------------------------
  alpha Z        PSCENC =       657.51421373
  Ewald energy   TEWEN  =     93896.35950691
  -Hartree energ DENC   =   -117042.79265672
  -exchange      EXHF   =         0.00000000
  -V(xc)+E(xc)   XCENC  =     -2726.53551339
  PAW double counting   =     23944.42432274   -19876.57326215
  entropy T*S    EENTRO =        -0.00561408
  eigenvalues    EBANDS =     -5331.51949353
  atomic energy  EATOM  =     25746.70830626
  Solvation  Ediel_sol  =         0.00000000
  ---------------------------------------------------
  free energy    TOTEN  =      -732.42019022 eV

  energy without entropy =     -732.41457614  energy(sigma->0) =     -732.41878670


--------------------------------------------------------------------------------------------------------




----------------------------------------- Iteration    1(   6)  ---------------------------------------


    POTLOK:  cpu time    0.0499: real time    0.0499
    SETDIJ:  cpu time    0.0068: real time    0.0068
    EDDIAG:  cpu time    0.9567: real time    0.9693
  RMM-DIIS:  cpu time   10.4046: real time   10.4050
    ORTHCH:  cpu time    0.2729: real time    0.2809
       DOS:  cpu time    0.0016: real time    0.0016
    CHARGE:  cpu time    0.2336: real time    0.2336
    MIXING:  cpu time    0.0031: real time    0.0032
    --------------------------------------------
      LOOP:  cpu time   11.9316: real time   11.9549

 eigenvalue-minimisations  :  3916
 total energy-change (2. order) :-0.3903884E+02  (-0.1573329E+03)
 number of electron     422.0000061 magnetization 
 augmentation part       64.1844732 magnetization 

 Broyden mixing:
  rms(total) = 0.46103E+01    rms(broyden)= 0.46100E+01
  rms(prec ) = 0.61797E+01
  weight for this iteration     100.00

 eigenvalues of (default mixing * dielectric matrix)
  average eigenvalue GAMMA=   0.7864
  0.7864

 Free energy of the ion-electron system (eV)
  ---------------------------------------------------
  alpha Z        PSCENC =       657.51421373
  Ewald energy   TEWEN  =     93896.35950691
  -Hartree energ DENC   =   -117879.83657822
  -exchange      EXHF   =         0.00000000
  -V(xc)+E(xc)   XCENC  =     -2696.36869330
  PAW double counting   =     28426.99031870   -24365.22507507
  entropy T*S    EENTRO =        -0.00714390
  eigenvalues    EBANDS =     -4557.59388263
  atomic energy  EATOM  =     25746.70830626
  Solvation  Ediel_sol  =         0.00000000
  ---------------------------------------------------
  free energy    TOTEN  =      -771.45902754 eV

  energy without entropy =     -771.45188363  energy(sigma->0) =     -771.45724156


--------------------------------------------------------------------------------------------------------




----------------------------------------- Iteration    1(   7)  ---------------------------------------


    POTLOK:  cpu time    0.0487: real time    0.0487
    SETDIJ:  cpu time    0.0066: real time    0.0066
    EDDIAG:  cpu time    0.9485: real time    0.9592
  RMM-DIIS:  cpu time    9.1730: real time    9.1731
    ORTHCH:  cpu time    0.2787: real time    0.2814
       DOS:  cpu time    0.0016: real time    0.0016
    CHARGE:  cpu time    0.2342: real time    0.2342
    MIXING:  cpu time    0.0019: real time    0.0019
    --------------------------------------------
      LOOP:  cpu time   10.6949: real time   10.7109

 eigenvalue-minimisations  :  3428
 total energy-change (2. order) : 0.2291653E+02  (-0.3777493E+02)
 number of electron     422.0000069 magnetization 
 augmentation part       61.6449916 magnetization 

 Broyden mixing:
  rms(total) = 0.42169E+01    rms(broyden)= 0.42169E+01
  rms(prec ) = 0.73429E+01
  weight for this iteration     100.00

 eigenvalues of (default mixing * dielectric matrix)
  average eigenvalue GAMMA=   0.6763
  1.0070  0.3455

 Free energy of the ion-electron system (eV)
  ---------------------------------------------------
  alpha Z        PSCENC =       657.51421373
  Ewald energy   TEWEN  =     93896.35950691
  -Hartree energ DENC   =   -117292.86356264
  -exchange      EXHF   =         0.00000000
  -V(xc)+E(xc)   XCENC  =     -2700.68695866
  PAW double counting   =     29117.41536653   -25067.10969857
  entropy T*S    EENTRO =        -0.00064457
  eigenvalues    EBANDS =     -5105.87902712
  atomic energy  EATOM  =     25746.70830626
  Solvation  Ediel_sol  =         0.00000000
  ---------------------------------------------------
  free energy    TOTEN  =      -748.54249814 eV

  energy without entropy =     -748.54185357  energy(sigma->0) =     -748.54233700


--------------------------------------------------------------------------------------------------------




----------------------------------------- Iteration    1(   8)  ---------------------------------------


    POTLOK:  cpu time    0.0485: real time    0.0486
    SETDIJ:  cpu time    0.0067: real time    0.0067
    EDDIAG:  cpu time    0.9653: real time    0.9732
  RMM-DIIS:  cpu time   10.0491: real time   10.0491
    ORTHCH:  cpu time    0.2669: real time    0.2805
       DOS:  cpu time    0.0017: real time    0.0017
    CHARGE:  cpu time    0.2337: real time    0.2337
    MIXING:  cpu time    0.0020: real time    0.0020
    --------------------------------------------
      LOOP:  cpu time   11.5757: real time   11.5998

 eigenvalue-minimisations  :  3776
 total energy-change (2. order) : 0.6845032E+02  (-0.2030250E+02)
 number of electron     422.0000070 magnetization 
 augmentation part       52.7677568 magnetization 

 Broyden mixing:
  rms(total) = 0.32555E+01    rms(broyden)= 0.32555E+01
  rms(prec ) = 0.48809E+01
  weight for this iteration     100.00

 eigenvalues of (default mixing * dielectric matrix)
  average eigenvalue GAMMA=   0.6570
  1.3038  0.4471  0.2200

 Free energy of the ion-electron system (eV)
  ---------------------------------------------------
  alpha Z        PSCENC =       657.51421373
  Ewald energy   TEWEN  =     93896.35950691
  -Hartree energ DENC   =   -117574.16174409
  -exchange      EXHF   =         0.00000000
  -V(xc)+E(xc)   XCENC  =     -2702.04557680
  PAW double counting   =     30004.16579412   -25957.91722519
  entropy T*S    EENTRO =        -0.00007157
  eigenvalues    EBANDS =     -4750.71538426
  atomic energy  EATOM  =     25746.70830626
  Solvation  Ediel_sol  =         0.00000000
  ---------------------------------------------------
  free energy    TOTEN  =      -680.09218089 eV

  energy without entropy =     -680.09210932  energy(sigma->0) =     -680.09216300


--------------------------------------------------------------------------------------------------------




----------------------------------------- Iteration    1(   9)  ---------------------------------------


    POTLOK:  cpu time    0.0485: real time    0.0485
    SETDIJ:  cpu time    0.0066: real time    0.0066
    EDDIAG:  cpu time    0.9720: real time    0.9832
  RMM-DIIS:  cpu time    8.8082: real time    8.8083
    ORTHCH:  cpu time    0.2588: real time    0.2804
       DOS:  cpu time    0.0017: real time    0.0017
    CHARGE:  cpu time    0.2342: real time    0.2342
    MIXING:  cpu time    0.0021: real time    0.0021
    --------------------------------------------
      LOOP:  cpu time   10.3339: real time   10.3695

 eigenvalue-minimisations  :  3310
 total energy-change (2. order) : 0.3461948E+02  (-0.5812577E+01)
 number of electron     422.0000071 magnetization 
 augmentation part       54.3919376 magnetization 

 Broyden mixing:
  rms(total) = 0.18122E+01    rms(broyden)= 0.18122E+01
  rms(prec ) = 0.20947E+01
  weight for this iteration     100.00

 eigenvalues of (default mixing * dielectric matrix)
  average eigenvalue GAMMA=   0.7275
  1.6653  0.5203  0.5203  0.2040

 Free energy of the ion-electron system (eV)
  ---------------------------------------------------
  alpha Z        PSCENC =       657.51421373
  Ewald energy   TEWEN  =     93896.35950691
  -Hartree energ DENC   =   -117566.41465872
  -exchange      EXHF   =         0.00000000
  -V(xc)+E(xc)   XCENC  =     -2698.96260570
  PAW double counting   =     31029.04498164   -26976.42356914
  entropy T*S    EENTRO =        -0.00611378
  eigenvalues    EBANDS =     -4733.29275911
  atomic energy  EATOM  =     25746.70830626
  Solvation  Ediel_sol  =         0.00000000
  ---------------------------------------------------
  free energy    TOTEN  =      -645.47269792 eV

  energy without entropy =     -645.46658414  energy(sigma->0) =     -645.47116948


--------------------------------------------------------------------------------------------------------




----------------------------------------- Iteration    1(  10)  ---------------------------------------


    POTLOK:  cpu time    0.0490: real time    0.0490
    SETDIJ:  cpu time    0.0067: real time    0.0067
    EDDIAG:  cpu time    0.9708: real time    0.9817
  RMM-DIIS:  cpu time    9.5636: real time    9.5637
    ORTHCH:  cpu time    0.2777: real time    0.2806
       DOS:  cpu time    0.0017: real time    0.0017
    CHARGE:  cpu time    0.2340: real time    0.2340
    MIXING:  cpu time    0.0022: real time    0.0022
    --------------------------------------------
      LOOP:  cpu time   11.1077: real time   11.1240

 eigenvalue-minimisations  :  3594
 total energy-change (2. order) : 0.4232550E+01  (-0.4555892E+01)
 number of electron     422.0000071 magnetization 
 augmentation part       57.8435949 magnetization 

 Broyden mixing:
  rms(total) = 0.11306E+01    rms(broyden)= 0.11306E+01
  rms(prec ) = 0.15273E+01
  weight for this iteration     100.00

 eigenvalues of (default mixing * dielectric matrix)
  average eigenvalue GAMMA=   0.7337
  1.8869  0.6211  0.6211  0.3460  0.1934

 Free energy of the ion-electron system (eV)
  ---------------------------------------------------
  alpha Z        PSCENC =       657.51421373
  Ewald energy   TEWEN  =     93896.35950691
  -Hartree energ DENC   =   -117651.33734611
  -exchange      EXHF   =         0.00000000
  -V(xc)+E(xc)   XCENC  =     -2693.91394335
  PAW double counting   =     31916.56841654   -27857.21336220
  entropy T*S    EENTRO =         0.00244532
  eigenvalues    EBANDS =     -4655.92838546
  atomic energy  EATOM  =     25746.70830626
  Solvation  Ediel_sol  =         0.00000000
  ---------------------------------------------------
  free energy    TOTEN  =      -641.24014835 eV

  energy without entropy =     -641.24259368  energy(sigma->0) =     -641.24075969


--------------------------------------------------------------------------------------------------------




----------------------------------------- Iteration    1(  11)  ---------------------------------------


    POTLOK:  cpu time    0.0489: real time    0.0489
    SETDIJ:  cpu time    0.0066: real time    0.0066
    EDDIAG:  cpu time    0.9726: real time    0.9818
  RMM-DIIS:  cpu time   10.3049: real time   10.3050
    ORTHCH:  cpu time    0.2698: real time    0.2806
       DOS:  cpu time    0.0017: real time    0.0017
    CHARGE:  cpu time    0.2337: real time    0.2337
    MIXING:  cpu time    0.0022: real time    0.0022
    --------------------------------------------
      LOOP:  cpu time   11.8423: real time   11.8648

 eigenvalue-minimisations  :  3858
 total energy-change (2. order) : 0.1182851E+01  (-0.2628459E+01)
 number of electron     422.0000070 magnetization 
 augmentation part       57.8352202 magnetization 

 Broyden mixing:
  rms(total) = 0.10040E+01    rms(broyden)= 0.10040E+01
  rms(prec ) = 0.12742E+01
  weight for this iteration     100.00

 eigenvalues of (default mixing * dielectric matrix)
  average eigenvalue GAMMA=   0.6948
  1.9338  0.7981  0.5140  0.4538  0.1927  0.2764

 Free energy of the ion-electron system (eV)
  ---------------------------------------------------
  alpha Z        PSCENC =       657.51421373
  Ewald energy   TEWEN  =     93896.35950691
  -Hartree energ DENC   =   -117704.65072965
  -exchange      EXHF   =         0.00000000
  -V(xc)+E(xc)   XCENC  =     -2691.66978771
  PAW double counting   =     32601.62300375   -28539.93675211
  entropy T*S    EENTRO =        -0.01674187
  eigenvalues    EBANDS =     -4605.98831616
  atomic energy  EATOM  =     25746.70830626
  Solvation  Ediel_sol  =         0.00000000
  ---------------------------------------------------
  free energy    TOTEN  =      -640.05729686 eV

  energy without entropy =     -640.04055500  energy(sigma->0) =     -640.05311140


--------------------------------------------------------------------------------------------------------




----------------------------------------- Iteration    1(  12)  ---------------------------------------


    POTLOK:  cpu time    0.0492: real time    0.0492
    SETDIJ:  cpu time    0.0067: real time    0.0067
    EDDIAG:  cpu time    0.9735: real time    0.9835
  RMM-DIIS:  cpu time    9.2029: real time    9.2029
    ORTHCH:  cpu time    0.2714: real time    0.2810
       DOS:  cpu time    0.0016: real time    0.0016
    CHARGE:  cpu time    0.2338: real time    0.2338
    MIXING:  cpu time    0.0024: real time    0.0024
    --------------------------------------------
      LOOP:  cpu time   10.7433: real time   10.7654

 eigenvalue-minimisations  :  3443
 total energy-change (2. order) : 0.1962198E+01  (-0.9768250E+00)
 number of electron     422.0000070 magnetization 
 augmentation part       58.0648155 magnetization 

 Broyden mixing:
  rms(total) = 0.57036E+00    rms(broyden)= 0.57036E+00
  rms(prec ) = 0.75445E+00
  weight for this iteration     100.00

 eigenvalues of (default mixing * dielectric matrix)
  average eigenvalue GAMMA=   0.6925
  1.9873  0.9871  0.5461  0.5461  0.3440  0.1942  0.2430

 Free energy of the ion-electron system (eV)
  ---------------------------------------------------
  alpha Z        PSCENC =       657.51421373
  Ewald energy   TEWEN  =     93896.35950691
  -Hartree energ DENC   =   -117719.21591972
[...]


 VOLUME and BASIS-vectors are now :
 -----------------------------------------------------------------------------
  energy-cutoff  :      600.00
  volume of cell :     3643.60
      direct lattice vectors                 reciprocal lattice vectors
    13.771350861  0.000000000  0.000000000     0.072614518  0.000000000  0.000000000
     0.000000000  9.564481735  0.000000000     0.000000000  0.104553496  0.000000000
     0.000000000  0.000000000 27.662570434     0.000000000  0.000000000  0.036149931

  length of vectors
    13.771350861  9.564481735 27.662570434     0.072614518  0.104553496  0.036149931


 FORCES acting on ions
    electron-ion (+dipol)            ewald-force                    non-local-force                 convergence-correction
 -----------------------------------------------------------------------------------------------
   -.477E+02 -.349E+02 0.435E+03   0.476E+02 0.346E+02 -.434E+03   0.795E-01 0.117E+00 -.820E+00   -.815E-02 -.416E-02 0.455E-02
   -.283E+02 -.264E+02 -.232E+02   0.282E+02 0.265E+02 0.224E+02   0.116E+00 -.111E+00 0.782E+00   -.269E-02 0.179E-02 0.776E-02
   -.175E+02 0.247E+02 -.240E+03   0.203E+02 -.225E+02 0.239E+03   -.281E+01 -.225E+01 0.132E+01   -.139E-02 0.611E-03 0.198E-02
   0.179E+01 0.584E+01 0.263E+03   -.159E+01 -.562E+01 -.263E+03   -.258E+00 -.275E+00 -.208E+00   -.779E-02 -.607E-03 0.124E-01
   -.665E+02 0.143E+02 0.124E+01   0.660E+02 -.142E+02 -.174E+01   0.525E+00 -.920E-01 0.490E+00   0.183E-02 0.307E-03 0.831E-02
   -.453E+02 0.450E+01 0.379E+03   0.446E+02 -.391E+01 -.377E+03   0.708E+00 -.996E+00 -.223E+01   0.981E-02 -.136E-02 0.412E-02
   -.381E+03 0.448E+01 0.776E+03   0.381E+03 -.375E+01 -.778E+03   0.297E+00 -.315E+00 0.920E+00   -.184E-01 0.133E-01 0.624E-01
   -.116E+03 0.169E+03 -.122E+04   0.114E+03 -.168E+03 0.122E+04   0.183E+01 -.977E+00 0.243E+01   0.490E-02 -.371E-02 0.915E-02
   0.971E+02 -.817E+01 0.186E+04   -.967E+02 0.711E+01 -.186E+04   -.570E+00 0.575E+00 -.433E+01   -.277E-01 0.473E-02 0.229E-01
   0.142E+03 0.101E+02 0.250E+02   -.143E+03 -.991E+01 -.239E+02   0.731E+00 -.166E+00 -.116E+01   -.130E-01 0.489E-03 0.329E-01
   -.570E+02 0.141E+03 0.193E+04   0.578E+02 -.140E+03 -.193E+04   -.505E+00 -.394E+00 -.271E+01   -.404E-01 0.228E-01 0.207E-01
   0.881E+02 0.922E+02 0.463E+02   -.878E+02 -.928E+02 -.459E+02   -.269E+00 0.665E+00 -.508E+00   -.129E-01 -.895E-02 0.403E-01
   -.402E+03 -.202E+02 0.105E+04   0.403E+03 0.189E+02 -.105E+04   -.756E+00 0.172E+01 -.168E+01   -.106E-01 -.135E-01 0.572E-01
   -.212E+03 -.132E+02 -.111E+04   0.213E+03 0.136E+02 0.111E+04   -.111E+01 -.468E+00 0.447E+00   0.888E-03 0.342E-02 0.663E-02
   0.294E+03 -.118E+03 0.177E+04   -.294E+03 0.118E+03 -.177E+04   0.256E+00 -.351E+00 -.426E+01   -.154E-01 -.365E-02 0.216E-01
   0.367E+03 -.135E+03 0.104E+02   -.367E+03 0.135E+03 -.101E+02   0.285E+00 0.155E+00 -.409E+00   -.985E-02 0.145E-01 0.299E-01
   -.188E+02 0.341E+01 0.312E+03   0.182E+02 -.332E+01 -.312E+03   0.596E+00 -.113E+00 -.157E+00   -.892E-02 0.252E-03 0.178E-01
   -.511E+01 -.401E+02 -.482E+03   0.496E+01 0.392E+02 0.481E+03   0.147E+00 0.839E+00 0.679E+00   -.432E-02 -.242E-03 0.245E-02
   0.176E+03 -.719E+01 0.297E+03   -.175E+03 0.709E+01 -.298E+03   -.144E+01 0.600E+00 0.561E+00   0.304E-02 -.172E-02 0.128E-01
   0.188E+03 -.279E+02 -.443E+03   -.187E+03 0.295E+02 0.441E+03   -.121E+01 -.156E+01 0.249E+01   0.121E-02 0.135E-02 0.763E-03
   0.138E+03 -.522E+02 0.333E+02   -.138E+03 0.525E+02 -.335E+02   -.254E+00 -.310E+00 0.159E+00   0.845E-03 0.559E-03 0.827E-02
   0.117E+03 -.556E+02 0.540E+03   -.115E+03 0.556E+02 -.537E+03   -.887E+00 -.242E+00 -.264E+01   0.136E-02 -.112E-02 0.589E-02
   -.120E+03 0.750E+02 0.330E-01   0.119E+03 -.740E+02 -.313E+00   0.384E-01 -.103E+01 0.262E+00   -.168E-02 -.291E-03 0.126E-01
   -.998E+02 0.598E+02 0.592E+03   0.992E+02 -.592E+02 -.589E+03   0.409E+00 -.560E+00 -.287E+01   -.517E-02 -.204E-02 0.339E-02
   0.739E+02 -.192E+02 0.271E+03   -.748E+02 0.186E+02 -.270E+03   0.102E+01 0.953E+00 -.555E+00   -.825E-02 -.190E-02 0.105E-01
   0.310E+02 -.657E+02 -.386E+03   -.314E+02 0.638E+02 0.384E+03   0.430E+00 0.182E+01 0.138E+01   -.405E-02 0.584E-03 0.123E-02
   -.725E+02 0.165E+02 -.336E+03   0.718E+02 -.176E+02 0.334E+03   0.676E+00 0.109E+01 0.209E+01   -.667E-03 -.362E-03 0.137E-02
   -.159E+03 0.539E+01 0.289E+03   0.158E+03 -.529E+01 -.290E+03   0.370E+00 -.226E+00 -.122E+00   0.472E-02 -.972E-03 0.192E-01
   -.149E+03 -.524E+01 0.553E+03   0.148E+03 0.517E+01 -.550E+03   0.742E+00 -.157E-01 -.252E+01   0.537E-02 0.491E-02 0.615E-02
   -.189E+03 -.134E+02 0.133E+02   0.188E+03 0.136E+02 -.146E+02   0.110E+01 -.138E+00 0.128E+01   -.302E-03 -.287E-02 0.122E-01
   0.794E+02 0.665E+01 0.275E+03   -.796E+02 -.630E+01 -.275E+03   0.457E-01 -.556E-01 -.216E+00   -.754E-02 0.184E-02 0.114E-01
   0.472E+02 0.695E+02 -.450E+03   -.452E+02 -.675E+02 0.447E+03   -.202E+01 -.202E+01 0.251E+01   -.348E-02 -.714E-03 0.465E-03
   0.689E+02 0.848E+01 0.296E+01   -.695E+02 -.808E+01 -.444E+01   0.572E+00 -.396E+00 0.147E+01   -.688E-02 -.433E-03 0.849E-02
   0.340E+02 -.117E+01 0.572E+03   -.346E+02 0.114E+01 -.569E+03   0.603E+00 0.121E-02 -.243E+01   -.124E-01 -.143E-02 0.531E-02
   0.129E+03 0.113E+02 0.266E+03   -.128E+03 -.116E+02 -.266E+03   -.875E+00 0.589E+00 -.450E+00   -.472E-02 0.156E-02 0.123E-01
   0.942E+02 0.184E+02 -.395E+03   -.922E+02 -.171E+02 0.393E+03   -.195E+01 -.125E+01 0.153E+01   -.112E-02 -.180E-02 0.127E-02
   0.129E+03 0.877E+01 0.291E+03   -.129E+03 -.862E+01 -.290E+03   0.686E-01 -.324E+00 -.675E+00   0.307E-02 0.227E-02 0.110E-01
   0.831E+02 0.380E+01 -.342E+03   -.847E+02 -.447E+01 0.340E+03   0.155E+01 0.664E+00 0.206E+01   -.971E-03 -.283E-02 0.228E-02
   0.127E+03 0.394E+02 0.503E+03   -.127E+03 -.391E+02 -.500E+03   0.173E+00 -.437E+00 -.268E+01   0.442E-02 0.168E-02 0.761E-02
   0.148E+03 0.352E+02 0.365E+02   -.148E+03 -.343E+02 -.368E+02   -.237E+00 -.855E+00 0.287E+00   0.897E-03 -.860E-03 0.709E-02
   -.981E+02 -.146E+01 0.559E+03   0.983E+02 0.144E+01 -.556E+03   -.437E+00 0.294E-01 -.301E+01   0.539E-02 -.371E-02 0.443E-02
   -.144E+03 0.540E+01 -.883E+01   0.144E+03 -.536E+01 0.916E+01   0.301E+00 -.439E-01 -.351E+00   0.631E-03 0.216E-02 0.122E-01
   0.129E+03 0.291E+02 0.529E+03   -.129E+03 -.294E+02 -.526E+03   -.279E+00 0.378E+00 -.249E+01   -.374E-02 0.320E-03 0.694E-02
   0.145E+03 0.305E+02 0.172E+02   -.144E+03 -.305E+02 -.178E+02   -.770E+00 -.236E-01 0.583E+00   -.248E-02 -.366E-02 0.737E-02
   0.868E+02 -.115E+02 -.353E+03   -.867E+02 0.987E+01 0.351E+03   -.106E+00 0.163E+01 0.238E+01   -.181E-02 -.282E-03 -.248E-02
   0.120E+03 -.572E+01 0.306E+03   -.121E+03 0.542E+01 -.306E+03   0.613E+00 0.342E+00 -.239E+00   -.410E-02 -.100E-02 0.930E-02
   0.393E+02 0.255E+01 0.245E+03   -.391E+02 -.251E+01 -.246E+03   -.307E+00 -.384E-01 0.126E+00   0.895E-02 0.795E-03 0.138E-01
   0.173E+02 -.322E+00 -.324E+03   -.183E+02 0.373E+00 0.322E+03   0.106E+01 -.515E-01 0.160E+01   0.145E-02 -.126E-02 0.201E-02
   -.405E+02 -.241E-01 0.512E+03   0.407E+02 0.367E+00 -.509E+03   -.682E-01 -.249E+00 -.284E+01   0.811E-02 0.161E-02 0.485E-02
   -.675E+02 -.115E+02 0.193E+02   0.675E+02 0.116E+02 -.192E+02   -.313E-01 -.869E-01 -.492E-01   0.433E-02 -.872E-03 0.121E-01
   0.521E+02 -.296E+01 0.494E+03   -.520E+02 0.232E+01 -.491E+03   0.104E-01 0.196E+00 -.315E+01   0.828E-02 0.108E-02 0.616E-02
   0.517E+02 -.209E+01 -.191E+02   -.514E+02 0.152E+01 0.196E+02   -.327E+00 0.568E+00 -.523E+00   0.524E-02 0.231E-02 0.856E-02
   -.683E+02 -.445E+01 0.274E+03   0.683E+02 0.453E+01 -.275E+03   0.595E-01 0.289E+00 0.254E-01   0.828E-02 0.290E-03 0.141E-01
   -.628E+02 -.633E+02 -.349E+03   0.633E+02 0.623E+02 0.347E+03   -.585E+00 0.106E+01 0.210E+01   0.189E-02 -.455E-03 0.129E-02
   0.410E+02 0.107E+01 0.508E+03   -.403E+02 -.938E+00 -.504E+03   -.817E+00 -.319E+00 -.320E+01   0.762E-02 -.156E-02 0.522E-02
   0.362E+02 -.162E+01 0.133E+02   -.358E+02 0.192E+01 -.127E+02   -.456E+00 -.304E+00 -.647E+00   0.528E-02 -.221E-02 0.893E-02
   -.952E+02 0.181E+01 0.253E+03   0.948E+02 -.188E+01 -.254E+03   0.434E+00 0.127E-01 -.158E+00   0.702E-02 -.926E-03 0.138E-01
   -.125E+03 0.243E+02 -.374E+03   0.123E+03 -.248E+02 0.372E+03   0.162E+01 0.462E+00 0.166E+01   0.662E-03 0.691E-03 0.137E-02
   0.219E+02 0.372E+02 -.294E+03   -.213E+02 -.364E+02 0.293E+03   -.582E+00 -.844E+00 0.660E+00   0.224E-02 0.214E-03 -.410E-03
   0.522E+02 -.541E+01 0.281E+03   -.515E+02 0.532E+01 -.282E+03   -.683E+00 0.280E+00 -.840E-01   0.673E-02 -.109E-02 0.981E-02
   -.141E+03 -.428E+02 0.589E+03   0.140E+03 0.421E+02 -.586E+03   0.841E+00 0.374E-01 -.327E+01   -.566E-02 0.163E-02 0.437E-02
   -.139E+03 -.493E+02 0.402E+01   0.138E+03 0.487E+02 -.322E+01   0.111E+00 0.611E+00 -.819E+00   -.192E-02 -.675E-04 0.131E-01
   -.158E+03 0.718E+01 0.278E+03   0.157E+03 -.745E+01 -.279E+03   0.979E+00 0.484E+00 0.137E+00   0.121E-02 0.130E-02 0.167E-01
   -.140E+03 -.372E+02 -.354E+03   0.139E+03 0.378E+02 0.352E+03   0.670E+00 -.598E+00 0.171E+01   0.968E-03 -.508E-03 0.282E-02
   0.150E+03 0.701E+02 -.586E+03   -.149E+03 -.693E+02 0.590E+03   -.356E+00 -.784E+00 -.470E+01   0.657E-02 0.353E-02 0.149E-02
   -.110E+03 0.231E+02 -.802E+03   0.110E+03 -.270E+02 0.816E+03   -.903E+00 0.389E+01 -.145E+02   0.421E-02 0.208E-02 -.261E-02
   0.190E+03 0.158E+02 -.580E+03   -.192E+03 -.183E+02 0.585E+03   0.147E+01 0.247E+01 -.502E+01   0.501E-02 0.369E-02 -.168E-02
   -.104E+03 0.205E+02 -.713E+03   0.103E+03 -.192E+02 0.723E+03   0.105E+01 -.124E+01 -.102E+02   0.828E-02 0.242E-02 0.138E-02
   0.930E+02 -.226E+02 -.825E+03   -.937E+02 0.251E+02 0.845E+03   0.738E+00 -.244E+01 -.193E+02   0.614E-02 0.756E-02 -.865E-02
   0.921E+02 -.377E+02 -.923E+03   -.878E+02 0.369E+02 0.942E+03   -.434E+01 0.794E+00 -.191E+02   0.119E-02 0.120E-01 0.732E-03
   -.109E+03 -.715E+02 -.103E+04   0.111E+03 0.706E+02 0.105E+04   -.201E+01 0.879E+00 -.213E+02   0.452E-02 0.174E-02 -.503E-02
   0.760E+02 0.425E+02 -.986E+03   -.791E+02 -.440E+02 0.101E+04   0.307E+01 0.149E+01 -.207E+02   -.437E-02 0.303E-02 -.454E-02
   0.141E+02 -.172E+02 -.841E+03   -.129E+02 0.150E+02 0.860E+03   -.121E+01 0.225E+01 -.186E+02   0.118E-01 0.635E-02 -.863E-02
   0.101E+03 -.182E+02 -.950E+03   -.105E+03 0.209E+02 0.969E+03   0.404E+01 -.273E+01 -.181E+02   -.487E-02 0.241E-02 -.108E-02
   0.589E+02 0.517E+01 -.732E+03   -.596E+02 -.806E+01 0.742E+03   0.738E+00 0.289E+01 -.931E+01   -.106E-02 0.200E-02 -.457E-02
   -.147E+03 -.709E+02 -.979E+03   0.147E+03 0.744E+02 0.998E+03   0.798E+00 -.352E+01 -.197E+02   0.853E-02 0.368E-02 -.688E-02
   -.287E+03 -.210E+02 -.628E+03   0.288E+03 0.239E+02 0.635E+03   -.127E+01 -.290E+01 -.715E+01   0.512E-02 -.224E-02 -.167E-02
 -----------------------------------------------------------------------------------------------
   -.121E+01 0.120E+01 0.207E+03   0.227E-12 0.853E-13 -.216E-11   0.129E+01 -.127E+01 -.208E+03   -.808E-01 0.646E-01 0.659E+00
 
 
 POSITION                                       TOTAL-FORCE (eV/Angst)
 -----------------------------------------------------------------------------------
      8.57631      8.29685     10.39845        -0.069121     -0.172891      0.008176
      8.57442      3.84079     15.10061        -0.002507      0.002310     -0.001364
      8.74895      6.01948     16.98267        -0.000152     -0.004845      0.000580
      8.51616      0.79995     12.43874        -0.060025     -0.054119      0.039921
     13.42320      6.10208     15.27679        -0.000003     -0.003849     -0.001145
     13.49094      1.15316     10.44749        -0.022098     -0.404101     -0.054734
     10.03344      3.28428     12.67411        -0.043934      0.421834     -0.467214
      9.88623      8.44880     17.23554        -0.000061     -0.000308      0.002089
      7.12524      5.81577     10.15765        -0.138871     -0.476986      0.890086
      6.99140      1.33540     15.06473        -0.000823     -0.001110     -0.001602
      8.51222      3.28036     10.20450         0.277178      0.046853      0.868666
      8.43795      8.29477     14.95444        -0.002274     -0.000878     -0.002119
     10.22263      8.06723     12.77991         0.394438      0.378705     -0.325787
     10.09987      3.77007     17.57569        -0.002082     -0.000839      0.001685
      5.42664      8.10481     10.20639         0.279612      0.087348      0.828698
      5.33374      3.56102     15.07289        -0.001871     -0.002648     -0.001606
      8.52843      5.75423     12.65640         0.046185     -0.029196     -0.306367
      8.47535      1.14146     17.53561        -0.003007     -0.001655      0.000687
      3.84829      7.97317     12.47259        -0.544188      0.495531     -0.481961
      3.80567      3.32869     17.42847        -0.006253      0.003249      0.002299
      3.79436      5.66549     14.75260         0.002881     -0.003479      0.000520
      3.90063      0.73891     10.00000         0.435673     -0.203440      0.353831
     10.31575      6.13655     14.87306        -0.002271     -0.001522     -0.004557
     10.19112      1.10470     10.13736        -0.221789     -0.007901      0.279596
      6.82945      7.99424     12.66670         0.099691      0.261309     -0.393795
      6.84956      3.70322     17.41593        -0.002886      0.001229      0.001339
     11.58793      6.32680     17.50410         0.000951      0.000243      0.002844
     11.66772      1.05372     12.57547        -0.330091     -0.132911     -0.471270
     11.73919      3.33868     10.41199        -0.267388     -0.086268      0.595789
     11.79414      8.42016     15.35387        -0.002734     -0.000519     -0.002132
      7.18522      3.24644     12.75390        -0.155280      0.299508     -0.416169
      7.15062      8.09837     17.52298         0.001383      0.000056      0.001646
      6.81909      6.01665     14.84584        -0.003517     -0.005151     -0.000650
      6.87795      0.97560     10.08695        -0.067528     -0.036384      0.230536
      5.51084      5.55012     12.48419        -0.114336      0.324603     -0.536542
      5.51566      0.93858     17.50510        -0.002078     -0.002249      0.002000
      3.51249      3.50019     12.83519        -0.037015     -0.165633     -0.254061
      3.10622      8.73221     17.55523        -0.002766     -0.003593      0.001105
      3.46798      5.87237     10.40868         0.105034     -0.207108     -0.040231
      3.47675      1.30959     15.12672        -0.000873     -0.002557      0.000206
     11.91771      8.21633     10.24534        -0.225366      0.006256      0.756240
     11.90108      3.59891     15.14948         0.001029      0.001113     -0.001314
      5.24135      3.36543     10.32679         0.118050      0.088458      0.150736
      5.16992      8.38655     15.10780        -0.001564      0.000441      0.000885
      4.95447      6.17688     17.36147        -0.007469     -0.004845     -0.002533
      5.28930      0.99064     12.60849         0.252936      0.032721     -0.377561
      1.60538      5.84491     12.85122        -0.107484      0.006281     -0.475792
      1.30851      1.59429     17.48382        -0.001082     -0.001450      0.002544
     13.72038      5.67134     10.18293         0.148329      0.095339      0.582984
     13.68651      1.06482     14.90607        -0.001269      0.002345     -0.000771
      1.63456      8.33987     10.36453         0.076002     -0.443802      0.115033
      1.56352      3.74545     15.27393        -0.001999     -0.005302      0.003181
     13.76831      3.16119     12.53308         0.107731      0.369339     -0.284078
      0.25731      8.24143     17.68029        -0.004178     -0.000626      0.000745
      1.99440      3.17314     10.17666        -0.132334     -0.185117      0.634062
      1.86640      8.03027     15.08101        -0.001640     -0.000993     -0.001827
     13.48051      8.37930     12.86886         0.055953     -0.055827     -0.438793
     13.17789      4.04846     17.94004        -0.003674     -0.002218      0.001968
      1.86188      5.83070     17.53681         0.000189     -0.005365      0.003328
      2.02729      0.87737     12.46815         0.023190      0.187082     -0.503273
     10.07171      5.79402     10.14663         0.151342     -0.586389      0.164931
     10.02695      1.24166     14.98285        -0.000438      0.000462      0.000169
     11.97051      5.66181     12.67660         0.046321      0.214321     -0.688014
     11.77359      1.19789     17.64922        -0.001874     -0.001971      0.000481
      5.10522      8.38765     17.42728        -0.002257     -0.001840      0.001306
     13.42928      2.12818     18.65658        -0.000616     -0.001420      0.000743
      3.47893      1.20630     17.49335        -0.001971     -0.003785     -0.001808
     13.58582      6.17419     18.24627        -0.004003     -0.001656     -0.000892
      3.61491      5.03532     18.45584         0.000663      0.003242      0.002366
      5.47907      2.73086     18.42808        -0.004765     -0.004439     -0.004745
     10.06805      0.44730     18.63655        -0.002309     -0.003085     -0.000364
      7.01292      0.23478     18.55814        -0.001002     -0.003022      0.000349
      2.07984      7.65939     18.70732        -0.003622     -0.002948      0.002290
      8.47023      2.99849     18.42448         0.000018     -0.001924     -0.000955
      7.01595      5.92791     17.71778        -0.000285      0.000249      0.000571
     11.33523      4.77662     18.71982        -0.003952     -0.000221      0.002883
     11.94432      8.38953     17.59944        -0.001804     -0.000043      0.005935
 -----------------------------------------------------------------------------------
    total drift:                               -0.001475     -0.001746     -0.042507


--------------------------------------------------------------------------------------------------------



  FREE ENERGIE OF THE ION-ELECTRON SYSTEM (eV)
  ---------------------------------------------------
  free  energy   TOTEN  =      -637.23120449 eV

  energy  without entropy=     -637.21993889  energy(sigma->0) =     -637.22838809
 
 d Force = 0.9073139E-05[ 0.123E-04, 0.588E-05]  d Energy = 0.1106718E-04-0.199E-05
 d Force = 0.1765986E+00[ 0.177E+00, 0.177E+00]  d Ewald  = 0.1765986E+00 0.553E-09


--------------------------------------------------------------------------------------------------------


    POTLOK:  cpu time    0.0595: real time    0.0595


--------------------------------------------------------------------------------------------------------




--------------------------------------------------------------------------------------------------------


  
 reached required accuracy - stopping structural energy minimisation
     LOOP+:  cpu time   49.6394: real time   49.7357
    4ORBIT:  cpu time    0.0000: real time    0.0000

 total amount of memory used by VASP on root node    81438. kBytes
========================================================================

   base      :      30000. kBytes
   nonl-proj :      14079. kBytes
   fftplans  :       3278. kBytes
   grid      :       7939. kBytes
   one-center:         31. kBytes
   wavefun   :      26111. kBytes
 
  
  
 General timing and accounting informations for this job:
 ========================================================
  
                  Total CPU time used (sec):     1169.148
                            User time (sec):     1147.856
                          System time (sec):       21.291
                         Elapsed time (sec):     1171.319
  
                   Maximum memory used (kb):      158736.
                   Average memory used (kb):           0.
  
                          Minor page faults:        46911
                          Major page faults:            0
                 Voluntary context switches:        15444
