 vasp.5.4.1 05Feb16 (build Mar 19 2020 08:54:17) complex                        
  
 executed on           IFC91_ompi date 2021.11.07  23:53:45
 running on   48 total cores
 distrk:  each k-point on   48 cores,    1 groups
 distr:  one band on NCORES_PER_BAND=  24 cores,    2 groups


--------------------------------------------------------------------------------------------------------


 INCAR:
 POTCAR:    PAW_PBE Al 04Jan2001                  
 POTCAR:    PAW_PBE Nb_sv 25May2007               
 POTCAR:    PAW_PBE Ta 17Jan2003                  
 POTCAR:    PAW_PBE Ti 08Apr2002                  
 POTCAR:   PAW_PBE Zr 08Apr2002                   
 POTCAR:    PAW_PBE O 08Apr2002                   

 ----------------------------------------------------------------------------- 
|                                                                             |
|           W    W    AA    RRRRR   N    N  II  N    N   GGGG   !!!           |
|           W    W   A  A   R    R  NN   N  II  NN   N  G    G  !!!           |
|           W    W  A    A  R    R  N N  N  II  N N  N  G       !!!           |
|           W WW W  AAAAAA  RRRRR   N  N N  II  N  N N  G  GGG   !            |
|           WW  WW  A    A  R   R   N   NN  II  N   NN  G    G                |
|           W    W  A    A  R    R  N    N  II  N    N   GGGG   !!!           |
|                                                                             |
|      For optimal performance we recommend to set                            |
|        NCORE= 4 - approx SQRT( number of cores)                             |
|      NCORE specifies how many cores store one orbital (NPAR=cpu/NCORE).     |
|      This setting can  greatly improve the performance of VASP for DFT.     |
|      The default, NPAR=number of cores might be grossly inefficient         |
|      on modern multi-core architectures or massively parallel machines.     |
|      Do your own testing !!!!                                               |
|      Unfortunately you need to use the default for GW and RPA calculations. |
|      (for HF NCORE is supported but not extensively tested yet)             |
|                                                                             |
 ----------------------------------------------------------------------------- 

 POTCAR:    PAW_PBE Al 04Jan2001                  
   VRHFIN =Al: s2p1                                                             
   LEXCH  = PE                                                                  
   EATOM  =    53.5387 eV,    3.9350 Ry                                         
                                                                                
   TITEL  = PAW_PBE Al 04Jan2001                                                
   LULTRA =        F    use ultrasoft PP ?                                      
   IUNSCR =        1    unscreen: 0-lin 1-nonlin 2-no                           
   RPACOR =    1.500    partial core radius                                     
   POMASS =   26.981; ZVAL   =    3.000    mass and valenz                      
   RCORE  =    1.900    outmost cutoff radius                                   
   RWIGS  =    2.650; RWIGS  =    1.402    wigner-seitz radius (au A)           
   ENMAX  =  240.300; ENMIN  =  180.225 eV                                      
   ICORE  =        2    local potential                                         
   LCOR   =        T    correct aug charges                                     
   LPAW   =        T    paw PP                                                  
   EAUG   =  291.052                                                            
   DEXC   =    0.000                                                            
   RMAX   =    1.939    core radius for proj-oper                               
   RAUG   =    1.300    factor for augmentation sphere                          
   RDEP   =    1.966    radius for radial grids                                 
   RDEPT  =    1.856    core radius for aug-charge                              
                                                                                
   Atomic configuration                                                         
    6 entries                                                                   
     n  l   j            E        occ.                                          
     1  0  0.50     -1511.1048   2.0000                                         
     2  0  0.50      -108.1629   2.0000                                         
     2  1  1.50       -69.6402   6.0000                                         
     3  0  0.50        -7.7528   2.0000                                         
     3  1  1.50        -2.7121   1.0000                                         
     3  2  2.50        -2.7212   0.0000                                         
   Description                                                                  
     l       E           TYP  RCUT    TYP  RCUT                                 
     0     -7.7528455     23  1.900                                             
     0     -3.3096929     23  1.900                                             
     1     -2.7120682     23  1.900                                             
     1     13.6058260     23  1.900                                             
     2     -2.7211652      7  1.900                                             
  local pseudopotential read in
  partial core-charges read in
  partial kinetic energy density read in
  atomic valenz-charges read in
  non local Contribution for L=           0  read in
    real space projection operators read in
  non local Contribution for L=           0  read in
    real space projection operators read in
  non local Contribution for L=           1  read in
    real space projection operators read in
  non local Contribution for L=           1  read in
    real space projection operators read in
    PAW grid and wavefunctions read in
 
   number of l-projection  operators is LMAX  =           4
   number of lm-projection operators is LMMAX =           8
 
 POTCAR:    PAW_PBE Nb_sv 25May2007               
   VRHFIN =Nb: 4p5s4d                                                           
   LEXCH  = PE                                                                  
   EATOM  =  1555.1913 eV,  114.3033 Ry                                         
                                                                                
   TITEL  = PAW_PBE Nb_sv 25May2007                                             
   LULTRA =        F    use ultrasoft PP ?                                      
   IUNSCR =        1    unscreen: 0-lin 1-nonlin 2-no                           
   RPACOR =    1.800    partial core radius                                     
   POMASS =   92.910; ZVAL   =   13.000    mass and valenz                      
   RCORE  =    2.400    outmost cutoff radius                                   
   RWIGS  =    2.400; RWIGS  =    1.270    wigner-seitz radius (au A)           
   ENMAX  =  293.235; ENMIN  =  219.927 eV                                      
   ICORE  =        3    local potential                                         
   LCOR   =        T    correct aug charges                                     
   LPAW   =        T    paw PP                                                  
   EAUG   =  455.659                                                            
   DEXC   =    0.000                                                            
   RMAX   =    2.456    core radius for proj-oper                               
   RAUG   =    1.300    factor for augmentation sphere                          
   RDEP   =    2.451    radius for radial grids                                 
   RDEPT  =    1.956    core radius for aug-charge                              
                                                                                
   Atomic configuration                                                         
   11 entries                                                                   
     n  l   j            E        occ.                                          
     1  0  0.50    -18805.2457   2.0000                                         
     2  0  0.50     -2630.2869   2.0000                                         
     2  1  1.50     -2348.4046   6.0000                                         
     3  0  0.50      -438.8757   2.0000                                         
     3  1  1.50      -346.7588   6.0000                                         
     3  2  2.50      -196.2560  10.0000                                         
     4  0  0.50       -58.3859   2.0000                                         
     5  0  0.50        -3.9816   1.0000                                         
     4  1  1.50       -34.5141   6.0000                                         
     4  2  2.50        -3.0408   4.0000                                         
     4  3  2.50        -1.3606   0.0000                                         
   Description                                                                  
     l       E           TYP  RCUT    TYP  RCUT                                 
     0    -58.3859094     23  2.200                                             
     0     -3.9816262     23  2.200                                             
     1    -34.5140738     23  2.200                                             
     1     13.6058260     23  2.200                                             
     2     -3.0408010     23  2.200                                             
     2     -0.1283038     23  2.200                                             
     3     -1.3605826     23  2.400                                             
  local pseudopotential read in
  partial core-charges read in
  partial kinetic energy density read in
  atomic valenz-charges read in
  non local Contribution for L=           0  read in
    real space projection operators read in
  non local Contribution for L=           0  read in
    real space projection operators read in
  non local Contribution for L=           1  read in
    real space projection operators read in
  non local Contribution for L=           1  read in
    real space projection operators read in
  non local Contribution for L=           2  read in
    real space projection operators read in
  non local Contribution for L=           2  read in
    real space projection operators read in
    PAW grid and wavefunctions read in
 
   number of l-projection  operators is LMAX  =           6
   number of lm-projection operators is LMMAX =          18
 
 POTCAR:    PAW_PBE Ta 17Jan2003                  
   VRHFIN =Ta:  6s5d                                                            
   LEXCH  = PE                                                                  
   EATOM  =   130.6506 eV,    9.6025 Ry                                         
                                                                                
   TITEL  = PAW_PBE Ta 17Jan2003                                                
   LULTRA =        F    use ultrasoft PP ?                                      
   IUNSCR =        1    unscreen: 0-lin 1-nonlin 2-no                           
   RPACOR =    2.330    partial core radius                                     
   POMASS =  180.948; ZVAL   =    5.000    mass and valenz                      
   RCORE  =    2.900    outmost cutoff radius                                   
   RWIGS  =    2.840; RWIGS  =    1.503    wigner-seitz radius (au A)           
   ENMAX  =  223.667; ENMIN  =  167.750 eV                                      
   RCLOC  =    2.205    cutoff for local pot                                    
   LCOR   =        T    correct aug charges                                     
   LPAW   =        T    paw PP                                                  
   EAUG   =  332.075                                                            
   DEXC   =    0.000                                                            
   RMAX   =    2.970    core radius for proj-oper                               
   RAUG   =    1.300    factor for augmentation sphere                          
   RDEP   =    3.060    radius for radial grids                                 
   RDEPT  =    2.354    core radius for aug-charge                              
                                                                                
   Atomic configuration                                                         
   16 entries                                                                   
     n  l   j            E        occ.                                          
     1  0  0.50    -67341.2807   2.0000                                         
     2  0  0.50    -11566.9376   2.0000                                         
     2  1  1.50    -10134.1182   6.0000                                         
     3  0  0.50     -2648.5620   2.0000                                         
     3  1  1.50     -2222.6012   6.0000                                         
     3  2  2.50     -1726.3120  10.0000                                         
     4  0  0.50      -538.6961   2.0000                                         
     4  1  1.50      -399.0129   6.0000                                         
     4  2  2.50      -220.3959  10.0000                                         
     4  3  3.50       -23.0374  14.0000                                         
     5  0  0.50       -71.2901   2.0000                                         
     5  1  1.50       -37.8225   6.0000                                         
     5  2  2.50        -2.6455   4.0000                                         
     6  0  0.50        -4.9623   1.0000                                         
     6  1  1.50        -1.3606   0.0000                                         
     5  3  2.50        -1.3606   0.0000                                         
   Description                                                                  
     l       E           TYP  RCUT    TYP  RCUT                                 
     2     -2.6455043     23  2.500                                             
     2     -0.6258895     23  2.500                                             
     0     -4.9622780     23  2.500                                             
     0      4.7531321     23  2.500                                             
     1     -1.3605826     23  2.900                                             
     1     27.2116520     23  2.900                                             
  local pseudopotential read in
  partial core-charges read in
  partial kinetic energy density read in
  atomic valenz-charges read in
  non local Contribution for L=           2  read in
    real space projection operators read in
  non local Contribution for L=           2  read in
    real space projection operators read in
  non local Contribution for L=           0  read in
    real space projection operators read in
  non local Contribution for L=           0  read in
    real space projection operators read in
  non local Contribution for L=           1  read in
    real space projection operators read in
  non local Contribution for L=           1  read in
    real space projection operators read in
    PAW grid and wavefunctions read in
 
   number of l-projection  operators is LMAX  =           6
   number of lm-projection operators is LMMAX =          18
 
 POTCAR:    PAW_PBE Ti 08Apr2002                  
   VRHFIN =Ti: d3 s1                                                            
   LEXCH  = PE                                                                  
   EATOM  =    94.7928 eV,    6.9671 Ry                                         
                                                                                
   TITEL  = PAW_PBE Ti 08Apr2002                                                
   LULTRA =        F    use ultrasoft PP ?                                      
   IUNSCR =        1    unscreen: 0-lin 1-nonlin 2-no                           
   RPACOR =    2.200    partial core radius                                     
   POMASS =   47.880; ZVAL   =    4.000    mass and valenz                      
   RCORE  =    2.800    outmost cutoff radius                                   
   RWIGS  =    2.500; RWIGS  =    1.323    wigner-seitz radius (au A)           
   ENMAX  =  178.330; ENMIN  =  133.747 eV                                      
   RCLOC  =    2.215    cutoff for local pot                                    
   LCOR   =        T    correct aug charges                                     
   LPAW   =        T    paw PP                                                  
   EAUG   =  328.883                                                            
   DEXC   =    0.000                                                            
   RMAX   =    2.868    core radius for proj-oper                               
   RAUG   =    1.300    factor for augmentation sphere                          
   RDEP   =    2.885    radius for radial grids                                 
   RDEPT  =    2.320    core radius for aug-charge                              
                                                                                
   Atomic configuration                                                         
    9 entries                                                                   
     n  l   j            E        occ.                                          
     1  0  0.50     -4865.3608   2.0000                                         
     2  0  0.50      -533.1367   2.0000                                         
     2  1  1.50      -440.5031   6.0000                                         
     3  0  0.50       -59.3186   2.0000                                         
     3  1  1.50       -35.7012   6.0000                                         
     3  2  2.50        -1.9157   3.0000                                         
     4  0  0.50        -3.7291   1.0000                                         
     4  1  1.50        -4.0817   0.0000                                         
     4  3  2.50        -1.3606   0.0000                                         
   Description                                                                  
     l       E           TYP  RCUT    TYP  RCUT                                 
     2     -1.9156924     23  2.800                                             
     2     -0.4062961     23  2.800                                             
     0     -3.7290832     23  2.800                                             
     0     20.4087390     23  2.800                                             
     1     -5.4423304     23  2.800                                             
  local pseudopotential read in
  partial core-charges read in
  partial kinetic energy density read in
  atomic valenz-charges read in
  non local Contribution for L=           2  read in
    real space projection operators read in
  non local Contribution for L=           2  read in
    real space projection operators read in
  non local Contribution for L=           0  read in
    real space projection operators read in
  non local Contribution for L=           0  read in
    real space projection operators read in
  non local Contribution for L=           1  read in
    real space projection operators read in
    PAW grid and wavefunctions read in
 
   number of l-projection  operators is LMAX  =           5
   number of lm-projection operators is LMMAX =          15
 
 POTCAR:   PAW_PBE Zr 08Apr2002                   
   VRHFIN =Zr: 5s4d5p                                                           
   LEXCH  = PE                                                                  
   EATOM  =    77.8472 eV,    5.7216 Ry                                         
                                                                                
   TITEL  = PAW_PBE Zr 08Apr2002                                                
   LULTRA =        F    use ultrasoft PP ?                                      
   IUNSCR =        1    unscreen: 0-lin 1-nonlin 2-no                           
   RPACOR =    2.200    partial core radius                                     
   POMASS =   91.224; ZVAL   =    4.000    mass and valenz                      
   RCORE  =    3.000    outmost cutoff radius                                   
   RWIGS  =    3.070; RWIGS  =    1.625    wigner-seitz radius (au A)           
   ENMAX  =  154.632; ENMIN  =  115.974 eV                                      
   RCLOC  =    2.213    cutoff for local pot                                    
   LCOR   =        T    correct aug charges                                     
   LPAW   =        T    paw PP                                                  
   EAUG   =  243.217                                                            
   DEXC   =    -.082                                                            
   RMAX   =    3.708    core radius for proj-oper                               
   RAUG   =    1.300    factor for augmentation sphere                          
   RDEP   =    3.146    radius for radial grids                                 
   QCUT   =   -3.371; QGAM   =    6.742    optimization parameters              
                                                                                
   Description                                                                  
     l     E      TYP  RCUT    TYP  RCUT                                        
     2   .000     23  3.000                                                     
     2   .000     23  3.000                                                     
     0   .000     23  3.000                                                     
     0  2.000     23  3.000                                                     
     1  -.400     23  3.000                                                     
     3   .000      7   .000                                                     
  local pseudopotential read in
  partial core-charges read in
  atomic valenz-charges read in
  non local Contribution for L=           2  read in
    real space projection operators read in
  non local Contribution for L=           2  read in
    real space projection operators read in
  non local Contribution for L=           0  read in
    real space projection operators read in
  non local Contribution for L=           0  read in
    real space projection operators read in
  non local Contribution for L=           1  read in
    real space projection operators read in
    PAW grid and wavefunctions read in
 
   number of l-projection  operators is LMAX  =           5
   number of lm-projection operators is LMMAX =          15
 
 POTCAR:    PAW_PBE O 08Apr2002                   
   VRHFIN =O: s2p4                                                              
   LEXCH  = PE                                                                  
   EATOM  =   432.3788 eV,   31.7789 Ry                                         
                                                                                
   TITEL  = PAW_PBE O 08Apr2002                                                 
   LULTRA =        F    use ultrasoft PP ?                                      
   IUNSCR =        1    unscreen: 0-lin 1-nonlin 2-no                           
   RPACOR =    1.200    partial core radius                                     
   POMASS =   16.000; ZVAL   =    6.000    mass and valenz                      
   RCORE  =    1.520    outmost cutoff radius                                   
   RWIGS  =    1.550; RWIGS  =    0.820    wigner-seitz radius (au A)           
   ENMAX  =  400.000; ENMIN  =  300.000 eV                                      
   ICORE  =        2    local potential                                         
   LCOR   =        T    correct aug charges                                     
   LPAW   =        T    paw PP                                                  
   EAUG   =  605.392                                                            
   DEXC   =    0.000                                                            
   RMAX   =    1.553    core radius for proj-oper                               
   RAUG   =    1.300    factor for augmentation sphere                          
   RDEP   =    1.550    radius for radial grids                                 
   RDEPT  =    1.329    core radius for aug-charge                              
                                                                                
   Atomic configuration                                                         
    4 entries                                                                   
     n  l   j            E        occ.                                          
     1  0  0.50      -514.6923   2.0000                                         
     2  0  0.50       -23.9615   2.0000                                         
     2  1  0.50        -9.0305   4.0000                                         
     3  2  1.50        -9.5241   0.0000                                         
   Description                                                                  
     l       E           TYP  RCUT    TYP  RCUT                                 
     0    -23.9615318     23  1.200                                             
     0     -9.5240782     23  1.200                                             
     1     -9.0304911     23  1.520                                             
     1      8.1634956     23  1.520                                             
     2     -9.5240782      7  1.500                                             
  local pseudopotential read in
  partial core-charges read in
  partial kinetic energy density read in
  kinetic energy density of atom read in
  atomic valenz-charges read in
  non local Contribution for L=           0  read in
    real space projection operators read in
  non local Contribution for L=           0  read in
    real space projection operators read in
  non local Contribution for L=           1  read in
    real space projection operators read in
  non local Contribution for L=           1  read in
    real space projection operators read in
    PAW grid and wavefunctions read in
 
   number of l-projection  operators is LMAX  =           4
   number of lm-projection operators is LMMAX =           8
 

 ----------------------------------------------------------------------------- 
|                                                                             |
|  ADVICE TO THIS USER RUNNING 'VASP/VAMP'   (HEAR YOUR MASTER'S VOICE ...):  |
|                                                                             |
|      You have a (more or less) 'large supercell' and for larger cells       |
|      it might be more efficient to use real space projection opertators     |
|      So try LREAL= Auto  in the INCAR   file.                               |
|      Mind: At the moment your POTCAR file does not contain real space       |
|       projectors, and has to be modified,  BUT if you                       |
|      want to do an extremely  accurate calculation you might also keep the  |
|      reciprocal projection scheme          (i.e. LREAL=.FALSE.)             |
|                                                                             |
 ----------------------------------------------------------------------------- 

 WARNING: PSMAXN for non-local potential too small
          PSMAXN should be >   12.5490833729506       NTYP=           5
  PAW_PBE Al 04Jan2001                  :
 energy of atom  1       EATOM=  -53.5387
 kinetic energy error for atom=    0.0002 (will be added to EATOM!!)
  PAW_PBE Nb_sv 25May2007               :
 energy of atom  2       EATOM=-1555.1913
 kinetic energy error for atom=    0.0037 (will be added to EATOM!!)
  PAW_PBE Ta 17Jan2003                  :
 energy of atom  3       EATOM= -130.6506
 kinetic energy error for atom=    0.0004 (will be added to EATOM!!)
  PAW_PBE Ti 08Apr2002                  :
 energy of atom  4       EATOM=  -94.7928
 kinetic energy error for atom=    0.0001 (will be added to EATOM!!)
 PAW_PBE Zr 08Apr2002                   :
 energy of atom  5       EATOM=  -77.8472
 kinetic energy error for atom=    0.0001 (will be added to EATOM!!)
  PAW_PBE O 08Apr2002                   :
 energy of atom  6       EATOM= -432.3788
 kinetic energy error for atom=    0.0168 (will be added to EATOM!!)
 
 
 POSCAR: Al Nb Ta Ti Zr                          
  positions in direct lattice
  velocities in cartesian coordinates
 exchange correlation table for  LEXCH =        8
   RHO(1)=    0.500       N(1)  =     2000
   RHO(2)=  100.500       N(2)  =     4000
 


--------------------------------------------------------------------------------------------------------


 ion  position               nearest neighbor table
   1  0.623  0.867  0.376-  34 2.83  25 2.88  24 2.88   9 2.88  13 2.90   4 2.91  61 2.93  15 3.16
                            41 3.35  17 3.40
   2  0.622  0.391  0.538-  90 1.84  86 1.92  31 2.57  33 2.67  23 2.67   7 2.68  26 2.94  62 2.95
                            17 3.00  16 3.02  10 3.10  42 3.35
   3  0.611  0.658  0.638-  79 1.79  75 1.80  78 1.80  86 1.86  85 2.08  91 2.30  32 2.73  26 2.89
                            23 2.98   8 3.08  45 3.09  33 3.18
   4  0.618  0.084  0.450-  31 2.80  24 2.86  34 2.87  13 2.88   1 2.91  25 2.92   7 2.92  62 3.08
                            28 3.16  46 3.24
   5  0.970  0.641  0.543-  93 1.92  88 2.03  82 2.04  30 2.76  63 2.78  47 2.98  42 3.01  52 3.07
                            23 3.11  57 3.12  56 3.17  59 3.60
   6  0.980  0.121  0.378-  29 2.80  28 2.80  53 2.91  41 2.96  51 3.05  55 3.05  60 3.08  57 3.37

   7  0.729  0.343  0.458-   2 2.68  28 2.77  29 2.83  31 2.85  17 2.89  11 2.90   4 2.92  63 3.07
                            42 3.10  62 3.19
   8  0.742  0.920  0.637-  91 2.08  78 2.08  71 2.11  83 2.18  77 2.21  18 2.70  30 2.89  27 2.91
                            64 2.95  32 2.99   3 3.08  62 3.21
   9  0.517  0.608  0.367-  35 2.84  15 2.85  17 2.87   1 2.88  11 2.89  61 2.95  43 3.10
  10  0.500  0.122  0.552-  90 2.16  92 2.24  16 2.66  12 2.80  44 3.00   2 3.10  46 3.10  18 3.14
                            62 3.17  40 3.45
  11  0.618  0.343  0.369-  24 2.75  34 2.83  31 2.87   9 2.89   7 2.90  61 2.96  43 3.27
  12  0.608  0.877  0.541-  91 2.04  85 2.35  25 2.80  10 2.80  13 2.88  62 2.90  33 2.97  30 3.07
                            44 3.13
  13  0.742  0.843  0.462-  30 2.61  17 2.87  12 2.88   4 2.88   1 2.90  28 2.94  63 2.98  41 3.05
                            57 3.27
  14  0.764  0.408  0.654-  74 1.93  79 1.95  89 2.00  76 2.05  58 3.00  27 3.00  64 3.05  18 3.15
                            42 3.28
  15  0.394  0.847  0.369-  22 2.68  19 2.76  25 2.83  34 2.84   9 2.85  39 2.98   1 3.16  46 3.43

  16  0.404  0.357  0.534-  84 2.11  87 2.22  92 2.24  31 2.60  10 2.66  33 2.75  21 2.81  37 2.82
                            20 2.93   2 3.02  40 3.04  26 3.09  46 3.26
  17  0.619  0.602  0.458-  33 2.77  25 2.81  31 2.85   9 2.87  13 2.87   7 2.89  61 2.95   2 3.00
                            35 3.03  23 3.28   1 3.40  63 3.44
  18  0.626  0.146  0.646-  72 1.99  90 2.01  71 2.07  74 2.10  32 2.61  89 2.65   8 2.70  26 2.81
                            36 3.05  62 3.13  10 3.14  14 3.15  64 3.59
  19  0.279  0.834  0.451-  15 2.76  35 2.94  46 2.96  44 2.97  39 2.97  25 2.99  60 3.07  51 3.08
                            47 3.12  56 3.25
  20  0.290  0.363  0.623-  70 2.03  92 2.13  69 2.14  87 2.21  84 2.28  67 2.38  36 2.92  16 2.93
                            21 3.08  48 3.10  59 3.13  26 3.14  40 3.21  52 3.27  45 3.34
  21  0.275  0.584  0.543-  84 2.08  80 2.12  87 2.20  82 2.21  16 2.81  44 3.02  37 3.03  59 3.05
                            56 3.06  35 3.07  20 3.08  47 3.08  52 3.12  33 3.12  45 3.40
  22  0.283  0.077  0.361-  15 2.68  46 2.97  43 2.97  34 2.99  51 3.02  55 3.10  60 3.10
  23  0.748  0.595  0.557-  91 1.97  86 2.24  93 2.33  79 2.47   2 2.67  30 2.68  42 2.71   3 2.98
                             5 3.11  63 3.20  17 3.28
  24  0.740  0.115  0.366-  29 2.73  11 2.75  28 2.85   4 2.86   1 2.88  41 3.00
  25  0.496  0.836  0.458-  35 2.78  12 2.80  17 2.81  15 2.83   1 2.88  44 2.89   4 2.92  19 2.99
                            46 2.99  33 3.11
  26  0.516  0.390  0.630-  70 1.95  75 2.10  74 2.10  86 2.16  90 2.25  87 2.36  18 2.81   3 2.89
                             2 2.94  36 3.04  16 3.09  20 3.14  45 3.28
  27  0.868  0.684  0.659-  76 2.00  77 2.00  79 2.00  68 2.04  93 2.05  58 2.88   8 2.91  54 2.94
                            14 3.00
  28  0.847  0.110  0.455-   7 2.77   6 2.80  24 2.85  57 2.90  13 2.94  53 2.98  62 2.99  29 3.15
                             4 3.16  50 3.22  41 3.36
  29  0.852  0.349  0.376-  24 2.73   6 2.80   7 2.83  53 2.94  61 2.98  49 3.07  28 3.15  63 3.25

  30  0.830  0.847  0.546-  83 2.03  91 2.10  88 2.21  13 2.61  23 2.68   5 2.76   8 2.89  62 3.00
                            57 3.04  12 3.07  50 3.09  63 3.47
  31  0.522  0.339  0.461-   2 2.57  16 2.60   4 2.80  17 2.85   7 2.85  35 2.86  11 2.87  46 2.95
                            43 3.11
  32  0.526  0.914  0.647-  78 1.92  72 2.00  65 2.05  85 2.06  36 2.61  18 2.61   3 2.73  45 2.98
                             8 2.99  44 3.50
  33  0.500  0.608  0.538-  86 2.12  85 2.16  87 2.29   2 2.67  16 2.75  17 2.77  35 2.79  44 2.91
                            12 2.97  25 3.11  21 3.12   3 3.18  45 3.45
  34  0.499  0.102  0.365-  11 2.83   1 2.83  15 2.84   4 2.87  43 2.91  46 2.98  22 2.99
  35  0.400  0.580  0.451-  25 2.78  33 2.79   9 2.84  31 2.86  37 2.88  39 2.93  19 2.94  17 3.03
                            21 3.07  43 3.08
  36  0.406  0.124  0.655-  72 1.97  70 1.98  92 2.03  67 2.08  65 2.17  32 2.61  20 2.92  38 2.98
                            26 3.04  18 3.05
  37  0.255  0.366  0.464-  84 2.18  16 2.82  35 2.88  47 3.02  21 3.03  60 3.04  43 3.05  55 3.08
                            46 3.08  40 3.12  52 3.27  39 3.39
  38  0.239  0.930  0.643-  73 1.88  65 2.02  67 2.10  80 2.24  48 2.90  54 2.91  56 2.97  36 2.98
                            59 3.13  45 3.20  40 3.38  44 3.41
  39  0.252  0.614  0.376-  35 2.93  19 2.97  15 2.98  47 3.07  43 3.07  51 3.07  55 3.08  37 3.39
                            49 3.53
  40  0.250  0.131  0.542-  92 2.13  84 2.28  60 2.92  46 3.03  56 3.03  16 3.04  37 3.12  44 3.16
                            52 3.18  20 3.21  48 3.34  38 3.38  10 3.45  50 3.73
  41  0.865  0.859  0.370-   6 2.96  24 3.00  61 3.05  13 3.05  57 3.06  49 3.12   1 3.35  28 3.36
                            51 3.49  63 3.53
  42  0.863  0.367  0.547-  89 2.26  81 2.33  93 2.44  23 2.71  62 2.96   5 3.01   7 3.10  50 3.14
                            53 3.23  52 3.26  63 3.27  14 3.28   2 3.35  58 3.50  64 3.68
  43  0.381  0.352  0.373-  34 2.91  22 2.97  37 3.05  39 3.07  35 3.08   9 3.10  31 3.11  55 3.26
                            11 3.27  46 3.29
  44  0.381  0.859  0.545-  80 2.30  85 2.43  25 2.89  33 2.91  19 2.97  10 3.00  21 3.02  12 3.13
                            40 3.16  56 3.19  45 3.34  46 3.40  38 3.41  32 3.50
  45  0.388  0.674  0.647-  75 2.05  69 2.07  87 2.15  65 2.19  80 2.26  85 2.31  32 2.98   3 3.09
                            38 3.20  59 3.25  26 3.28  44 3.34  20 3.34  21 3.40  33 3.45
  46  0.384  0.104  0.456-  31 2.95  19 2.96  22 2.97  34 2.98  25 2.99  40 3.03  37 3.08  10 3.10
                             4 3.24  16 3.26  60 3.27  43 3.29  44 3.40  15 3.43
  47  0.117  0.611  0.465-  82 2.43   5 2.98  37 3.02  39 3.07  21 3.08  19 3.12  53 3.14  49 3.15
                            57 3.17  56 3.29  52 3.31  63 3.42  51 3.52  55 3.80
  48  0.111  0.171  0.640-  67 2.08  66 2.13  81 2.34  38 2.90  54 3.01  58 3.10  20 3.10  52 3.13
                            64 3.13  50 3.18  40 3.34
  49  0.996  0.593  0.368-  63 3.05  29 3.07  41 3.12  47 3.15  51 3.16  55 3.23  53 3.44  39 3.53
                            61 3.65  57 3.82
  50  0.981  0.086  0.550-  83 2.24  81 2.25  88 2.31  57 3.08  30 3.09  42 3.14  48 3.18  28 3.22
                            64 3.23  56 3.24  52 3.25  54 3.33  62 3.50  53 3.56  60 3.57  40 3.73
  51  0.119  0.872  0.375-  60 3.00  22 3.02   6 3.05  39 3.07  19 3.08  57 3.16  49 3.16  41 3.49
                            47 3.52
  52  0.099  0.380  0.553-  84 2.12  81 2.25  82 2.30   5 3.07  21 3.12  53 3.13  48 3.13  40 3.18
                            50 3.25  42 3.26  20 3.27  37 3.27  47 3.31  58 3.34  59 3.35
  53  1.000  0.331  0.453-   6 2.91  29 2.94  28 2.98  60 3.06  63 3.08  55 3.09  52 3.13  47 3.14
                            42 3.23  49 3.44  50 3.56
  54  0.030  0.879  0.644-  73 2.16  77 2.18  68 2.24  88 2.41  38 2.91  27 2.94  59 2.99  48 3.01
                            56 3.11  64 3.21  50 3.33
  55  0.145  0.332  0.368-   6 3.05  37 3.08  39 3.08  53 3.09  22 3.10  49 3.23  60 3.24  43 3.26
                            47 3.80
  56  0.150  0.849  0.549-  82 2.24  88 2.25  80 2.33  38 2.97  40 3.03  21 3.06  54 3.11   5 3.17
                            44 3.19  59 3.19  50 3.24  19 3.25  47 3.29  57 3.31  60 3.57
  57  0.979  0.876  0.465-  88 2.64  28 2.90  30 3.04  41 3.06  50 3.08  63 3.11   5 3.12  60 3.13
                            51 3.16  47 3.17  13 3.27  56 3.31   6 3.37  49 3.82
  58  0.981  0.431  0.657-  66 2.09  76 2.12  68 2.18  81 2.22  93 2.44  27 2.88  14 3.00  64 3.05
                            48 3.10  59 3.11  52 3.34  42 3.50
  59  0.156  0.626  0.635-  69 2.11  68 2.12  73 2.21  80 2.27  82 2.34  54 2.99  21 3.05  58 3.11
                            20 3.13  38 3.13  56 3.19  45 3.25  52 3.35   5 3.60
  60  0.147  0.092  0.451-  40 2.92  51 3.00  37 3.04  53 3.06  19 3.07   6 3.08  22 3.10  57 3.13
                            55 3.24  46 3.27  50 3.57  56 3.57
  61  0.731  0.606  0.367-   1 2.93  17 2.95   9 2.95  11 2.96  29 2.98  41 3.05  63 3.17  49 3.65

  62  0.729  0.125  0.545-  89 2.25  83 2.26  90 2.30  12 2.90   2 2.95  42 2.96  28 2.99  30 3.00
                             4 3.08  18 3.13  10 3.17   7 3.19   8 3.21  50 3.50  64 3.73
  63  0.869  0.592  0.458-   5 2.78  13 2.98  49 3.05   7 3.07  53 3.08  57 3.11  61 3.17  23 3.20
                            29 3.25  42 3.27  47 3.42  17 3.44  30 3.47  41 3.53
  64  0.887  0.142  0.655-  71 2.13  66 2.13  89 2.17  83 2.26  81 2.44  77 2.49   8 2.95  14 3.05
                            58 3.05  48 3.13  54 3.21  50 3.23  18 3.59  42 3.68  62 3.73
  65  0.380  0.900  0.660-  38 2.02  32 2.05  36 2.17  45 2.19
  66  0.006  0.239  0.691-  58 2.09  48 2.13  64 2.13
  67  0.256  0.143  0.660-  36 2.08  48 2.08  38 2.10  20 2.38
  68  0.014  0.653  0.663-  27 2.04  59 2.12  58 2.18  54 2.24
  69  0.279  0.541  0.670-  45 2.07  59 2.11  20 2.14
  70  0.404  0.327  0.668-  26 1.95  36 1.98  20 2.03
  71  0.749  0.092  0.685-  18 2.07   8 2.11  64 2.13
  72  0.524  0.079  0.692-  36 1.97  18 1.99  32 2.00
  73  0.160  0.814  0.681-  38 1.88  54 2.16  59 2.21
  74  0.636  0.348  0.675-  14 1.93  18 2.10  26 2.10
  75  0.513  0.576  0.670-   3 1.80  45 2.05  26 2.10
  76  0.863  0.508  0.698-  27 2.00  14 2.05  58 2.12
  77  0.883  0.887  0.673-  27 2.00  54 2.18   8 2.21  64 2.49
  78  0.633  0.812  0.674-   3 1.80  32 1.92   8 2.08
  79  0.735  0.606  0.646-   3 1.79  14 1.95  27 2.00  23 2.47
  80  0.273  0.747  0.595-  21 2.12  38 2.24  45 2.26  59 2.27  44 2.30  56 2.33
  81  0.984  0.276  0.598-  58 2.22  52 2.25  50 2.25  42 2.33  48 2.34  64 2.44
  82  0.117  0.619  0.552-   5 2.04  21 2.21  56 2.24  52 2.30  59 2.34  47 2.43
  83  0.847  0.017  0.589-  30 2.03   8 2.18  50 2.24  64 2.26  62 2.26
  84  0.252  0.368  0.543-  21 2.08  16 2.11  52 2.12  37 2.18  40 2.28  20 2.28
  85  0.507  0.760  0.596-  32 2.06   3 2.08  33 2.16  45 2.31  12 2.35  44 2.43
  86  0.605  0.529  0.588-   3 1.86   2 1.92  33 2.12  26 2.16  23 2.24
  87  0.391  0.517  0.592-  45 2.15  21 2.20  20 2.21  16 2.22  33 2.29  26 2.36
  88  0.988  0.846  0.560-   5 2.03  30 2.21  56 2.25  50 2.31  54 2.41  57 2.64
  89  0.787  0.251  0.607-  14 2.00  64 2.17  62 2.25  42 2.26  18 2.65
  90  0.610  0.252  0.584-   2 1.84  18 2.01  10 2.16  26 2.25  62 2.30
  91  0.707  0.777  0.583-  23 1.97  12 2.04   8 2.08  30 2.10   3 2.30
  92  0.364  0.195  0.589-  36 2.03  20 2.13  40 2.13  16 2.24  10 2.24
  93  0.896  0.573  0.597-   5 1.92  27 2.05  23 2.33  42 2.44  58 2.44
 
  LATTYP: Found a simple orthorhombic cell.
 ALAT       =     9.5644817352
 B/A-ratio  =     1.4398428730
 C/A-ratio  =     2.8922184390
  
  Lattice vectors:
  
 A1 = (   0.0000000000,  -9.5644817352,   0.0000000000)
 A2 = ( -13.7713508606,   0.0000000000,   0.0000000000)
 A3 = (   0.0000000000,   0.0000000000, -27.6625704340)


Analysis of symmetry for initial positions (statically):
=====================================================================
 Subroutine PRICEL returns:
 Original cell was already a primitive cell.
 

 Routine SETGRP: Setting up the symmetry group for a 
 simple orthorhombic supercell.


 Subroutine GETGRP returns: Found  1 space group operations
 (whereof  1 operations were pure point group operations)
 out of a pool of  8 trial point group operations.


The static configuration has the point symmetry C_1 .


Analysis of symmetry for dynamics (positions and initial velocities):
=====================================================================
 Subroutine PRICEL returns:
 Original cell was already a primitive cell.
 

 Routine SETGRP: Setting up the symmetry group for a 
 simple orthorhombic supercell.


 Subroutine GETGRP returns: Found  1 space group operations
 (whereof  1 operations were pure point group operations)
 out of a pool of  8 trial point group operations.


The dynamic configuration has the point symmetry C_1 .


Analysis of constrained symmetry for selective dynamics:
=====================================================================
 Subroutine PRICEL returns:
 Original cell was already a primitive cell.
 

 Routine SETGRP: Setting up the symmetry group for a 
 simple orthorhombic supercell.


 Subroutine GETGRP returns: Found  1 space group operations
 (whereof  1 operations were pure point group operations)
 out of a pool of  8 trial point group operations.


The constrained configuration has the point symmetry C_1 .


 Subroutine INISYM returns: Found  1 space group operations
 (whereof  1 operations are pure point group operations),
 and found     1 'primitive' translations

 
 
 KPOINTS: k-points                                

Automatic generation of k-mesh.
Space group operators:
 irot       det(A)        alpha          n_x          n_y          n_z        tau_x        tau_y        tau_z
    1     1.000000     0.000000     1.000000     0.000000     0.000000     0.000000     0.000000     0.000000
 
 Subroutine IBZKPT returns following result:
 ===========================================
 
 Found      5 irreducible k-points:
 
 Following reciprocal coordinates:
            Coordinates               Weight
  0.000000  0.000000  0.000000      1.000000
  0.333333  0.000000  0.000000      2.000000
  0.000000  0.333333  0.000000      2.000000
  0.333333  0.333333  0.000000      2.000000
 -0.333333  0.333333  0.000000      2.000000
 
 Following cartesian coordinates:
            Coordinates               Weight
  0.000000  0.000000  0.000000      1.000000
  0.024205  0.000000  0.000000      2.000000
  0.000000  0.034851  0.000000      2.000000
  0.024205  0.034851  0.000000      2.000000
 -0.024205  0.034851  0.000000      2.000000
 


--------------------------------------------------------------------------------------------------------




 Dimension of arrays:
   k-points           NKPTS =      5   k-points in BZ     NKDIM =      5   number of bands    NBANDS=    310
   number of dos      NEDOS =    301   number of ions     NIONS =     93
   non local maximal  LDIM  =      6   non local SUM 2l+1 LMDIM =     18
   total plane-waves  NPLWV = 846720
   max r-space proj   IRMAX =      1   max aug-charges    IRDMAX=  25433
   dimension x,y,z NGX =    84 NGY =   60 NGZ =  168
   dimension x,y,z NGXF=   168 NGYF=  120 NGZF=  336
   support grid    NGXF=   168 NGYF=  120 NGZF=  336
   ions per type =               6  10   4  18  26  29
 NGX,Y,Z   is equivalent  to a cutoff of  10.14, 10.43, 10.10 a.u.
 NGXF,Y,Z  is equivalent  to a cutoff of  20.28, 20.86, 20.19 a.u.


 I would recommend the setting:
   dimension x,y,z NGX =    83 NGY =   57 NGZ =  166
 SYSTEM =  (110) surface                           
 POSCAR =  Al Nb Ta Ti Zr                          

 Startparameter for this run:
   NWRITE =      2    write-flag & timer
   PREC   = normal    normal or accurate (medium, high low for compatibility)
   ISTART =      0    job   : 0-new  1-cont  2-samecut
   ICHARG =      2    charge: 1-file 2-atom 10-const
   ISPIN  =      1    spin polarized calculation?
   LNONCOLLINEAR =      F non collinear calculations
   LSORBIT =      F    spin-orbit coupling
   INIWAV =      1    electr: 0-lowe 1-rand  2-diag
   LASPH  =      F    aspherical Exc in radial PAW
   METAGGA=      F    non-selfconsistent MetaGGA calc.

 Electronic Relaxation 1
   ENCUT  =  600.0 eV  44.10 Ry    6.64 a.u.  27.50 19.10 55.25*2*pi/ulx,y,z
   ENINI  =  600.0     initial cutoff
   ENAUG  =  605.4 eV  augmentation charge cutoff
   NELM   =     60;   NELMIN=  2; NELMDL= -5     # of ELM steps 
   EDIFF  = 0.1E-03   stopping-criterion for ELM
   LREAL  =      F    real-space projection
   NLSPLINE    = F    spline interpolate recip. space projectors
   LCOMPAT=      F    compatible to vasp.4.4
   GGA_COMPAT  = T    GGA compatible to vasp.4.4-vasp.4.6
   LMAXPAW     = -100 max onsite density
   LMAXMIX     =    2 max onsite mixed and CHGCAR
   VOSKOWN=      0    Vosko Wilk Nusair interpolation
   ROPT   =    0.00000   0.00000   0.00000   0.00000
   ROPT   =    0.00000   0.00000
 Ionic relaxation
   EDIFFG = 0.1E-02   stopping-criterion for IOM
   NSW    =      0    number of steps for IOM
   NBLOCK =      1;   KBLOCK =      1    inner block; outer block 
   IBRION =     -1    ionic relax: 0-MD 1-quasi-New 2-CG
   NFREE  =      0    steps in history (QN), initial steepest desc. (CG)
   ISIF   =      2    stress and relaxation
   IWAVPR =     10    prediction:  0-non 1-charg 2-wave 3-comb
   ISYM   =      2    0-nonsym 1-usesym 2-fastsym
   LCORR  =      T    Harris-Foulkes like correction to forces

   POTIM  = 0.1000    time-step for ionic-motion
   TEIN   =    0.0    initial temperature
   TEBEG  =    0.0;   TEEND  =   0.0 temperature during run
   SMASS  =  -3.00    Nose mass-parameter (am)
   estimated Nose-frequenzy (Omega)   =  0.10E-29 period in steps =****** mass=  -0.433E-26a.u.
   SCALEE = 1.0000    scale energy and forces
   NPACO  =    256;   APACO  = 16.0  distance and # of slots for P.C.
   PSTRESS=    0.0 pullay stress

  Mass of Ions in am
   POMASS =  26.98 92.91180.95 47.88 91.22 16.00
  Ionic Valenz
   ZVAL   =   3.00 13.00  5.00  4.00  4.00  6.00
  Atomic Wigner-Seitz radii
   RWIGS  =  -1.00 -1.00 -1.00 -1.00 -1.00 -1.00
  virtual crystal weights 
   VCA    =   1.00  1.00  1.00  1.00  1.00  1.00
   NELECT =     518.0000    total number of electrons
   NUPDOWN=      -1.0000    fix difference up-down

 DOS related values:
   EMIN   =  10.00;   EMAX   =-10.00  energy-range for DOS
   EFERMI =   0.00
   ISMEAR =     2;   SIGMA  =   0.10  broadening in eV -4-tet -1-fermi 0-gaus

 Electronic relaxation 2 (details)
   IALGO  =     68    algorithm
   LDIAG  =      T    sub-space diagonalisation (order eigenvalues)
   LSUBROT=      F    optimize rotation matrix (better conditioning)
   TURBO    =      0    0=normal 1=particle mesh
   IRESTART =      0    0=no restart 2=restart with 2 vectors
   NREBOOT  =      0    no. of reboots
   NMIN     =      0    reboot dimension
   EREF     =   0.00    reference energy to select bands
   IMIX   =      4    mixing-type and parameters
     AMIX     =   0.40;   BMIX     =  1.00
     AMIX_MAG =   1.60;   BMIX_MAG =  1.00
     AMIN     =   0.10
     WC   =   100.;   INIMIX=   1;  MIXPRE=   1;  MAXMIX= -45

 Intra band minimization:
   WEIMIN = 0.0000     energy-eigenvalue tresh-hold
   EBREAK =  0.81E-07  absolut break condition
   DEPER  =   0.30     relativ break condition  

   TIME   =   0.40     timestep for ELM

  volume/ion in A,a.u.               =      39.18       264.39
  Fermi-wavevector in a.u.,A,eV,Ry     =   0.854426  1.614631  9.932854  0.730044
  Thomas-Fermi vector in A             =   1.971021
 
 Write flags
   LWAVE  =      F    write WAVECAR
   LCHARG =      T    write CHGCAR
   LVTOT  =      F    write LOCPOT, total local potential
   LVHAR  =      F    write LOCPOT, Hartree potential only
   LELF   =      F    write electronic localiz. function (ELF)
   LORBIT =      0    0 simple, 1 ext, 2 COOP (PROOUT)


 Dipole corrections
   LMONO  =      F    monopole corrections only (constant potential shift)
   LDIPOL =      F    correct potential (dipole corrections)
   IDIPOL =      0    1-x, 2-y, 3-z, 4-all directions 
   EPSILON=  1.0000000 bulk dielectric constant

 Exchange correlation treatment:
   GGA     =    --    GGA type
   LEXCH   =     8    internal setting for exchange type
   VOSKOWN=      0    Vosko Wilk Nusair interpolation
   LHFCALC =     F    Hartree Fock is set to
   LHFONE  =     F    Hartree Fock one center treatment
   AEXX    =    0.0000 exact exchange contribution

 Linear response parameters
   LEPSILON=     F    determine dielectric tensor
   LRPA    =     F    only Hartree local field effects (RPA)
   LNABLA  =     F    use nabla operator in PAW spheres
   LVEL    =     F    velocity operator in full k-point grid
   LINTERFAST=   F  fast interpolation
   KINTER  =     0    interpolate to denser k-point grid
   CSHIFT  =0.1000    complex shift for real part using Kramers Kronig
   OMEGAMAX=  -1.0    maximum frequency
   DEG_THRESHOLD= 0.2000000E-02 threshold for treating states as degnerate
   RTIME   =    0.100 relaxation time in fs

 Orbital magnetization related:
   ORBITALMAG=     F  switch on orbital magnetization
   LCHIMAG   =     F  perturbation theory with respect to B field
   DQ        =  0.001000  dq finite difference perturbation B field



--------------------------------------------------------------------------------------------------------


 Static calculation
 charge density and potential will be updated during run
 non-spin polarized calculation
 RMM-DIIS sequential band-by-band and
  variant of blocked Davidson during initial phase
 perform sub-space diagonalisation
    before iterative eigenvector-optimisation
 modified Broyden-mixing scheme, WC =      100.0
 initial mixing is a Kerker type mixing with AMIX =  0.4000 and BMIX =      1.0000
 Hartree-type preconditioning will be used
 using additional bands           51
 reciprocal scheme for non local part
 use partial core corrections
 calculate Harris-corrections to forces 
   (improved forces if not selfconsistent)
 use gradient corrections 
 use of overlap-Matrix (Vanderbilt PP)
 Methfessel and Paxton  Order N= 2 SIGMA  =   0.10


--------------------------------------------------------------------------------------------------------


  energy-cutoff  :      600.00
  volume of cell :     3643.60
      direct lattice vectors                 reciprocal lattice vectors
    13.771350861  0.000000000  0.000000000     0.072614518  0.000000000  0.000000000
     0.000000000  9.564481735  0.000000000     0.000000000  0.104553496  0.000000000
     0.000000000  0.000000000 27.662570434     0.000000000  0.000000000  0.036149931

  length of vectors
    13.771350861  9.564481735 27.662570434     0.072614518  0.104553496  0.036149931


 
 k-points in units of 2pi/SCALE and weight: k-points                                
   0.00000000  0.00000000  0.00000000       0.111
   0.02420484  0.00000000  0.00000000       0.222
   0.00000000  0.03485117  0.00000000       0.222
   0.02420484  0.03485117  0.00000000       0.222
  -0.02420484  0.03485117  0.00000000       0.222
 
 k-points in reciprocal lattice and weights: k-points                                
   0.00000000  0.00000000  0.00000000       0.111
   0.33333333  0.00000000  0.00000000       0.222
   0.00000000  0.33333333  0.00000000       0.222
   0.33333333  0.33333333  0.00000000       0.222
  -0.33333333  0.33333333  0.00000000       0.222
 
 position of ions in fractional coordinates (direct lattice) 
   0.62276447  0.86746430  0.37590333
   0.62180167  0.39054800  0.53765641
   0.61140984  0.65785781  0.63757221
   0.61839700  0.08363760  0.44965952
   0.97045134  0.64101456  0.54344957
   0.97963780  0.12056648  0.37767599
   0.72857308  0.34338307  0.45816820
   0.74210710  0.91973859  0.63706809
   0.51739597  0.60805875  0.36719826
   0.49958250  0.12174326  0.55193641
   0.61811078  0.34297293  0.36889183
   0.60837221  0.87676778  0.54092555
   0.74231148  0.84345710  0.46199300
   0.76439330  0.40756833  0.65425008
   0.39405298  0.84738672  0.36896032
   0.40368758  0.35734802  0.53407540
   0.61928761  0.60162497  0.45752798
   0.62627776  0.14625834  0.64582915
   0.27944195  0.83362269  0.45088327
   0.28957048  0.36296571  0.62335886
   0.27460064  0.58389753  0.54283916
   0.28324246  0.07725573  0.36149931
   0.74848959  0.59457815  0.55697519
   0.74002355  0.11549973  0.36646499
   0.49591756  0.83582580  0.45790018
   0.51625984  0.38951353  0.63014147
   0.86789225  0.68350896  0.65882517
   0.84724605  0.11017048  0.45460239
   0.85243583  0.34907103  0.37639265
   0.83000961  0.84701666  0.54554938
   0.52175105  0.33942658  0.46105252
   0.52592639  0.91446658  0.64712170
   0.50039221  0.60832812  0.53827979
   0.49943882  0.10200214  0.36464270
   0.40016663  0.58028412  0.45130253
   0.40587037  0.12388618  0.65487552
   0.25505811  0.36595738  0.46399110
   0.23869123  0.93003817  0.64271070
   0.25182599  0.61397660  0.37627308
   0.24982720  0.13051953  0.54202955
   0.86539888  0.85904646  0.37036829
   0.86335893  0.36684700  0.54737475
   0.38059813  0.35186696  0.37331264
   0.38134390  0.85944068  0.54502635
   0.38824027  0.67441452  0.64732163
   0.38408008  0.10357511  0.45579618
   0.11657381  0.61110574  0.46457054
   0.11122631  0.17078657  0.63996575
   0.99629861  0.59295863  0.36811234
   0.98127832  0.08556269  0.54968878
   0.11869311  0.87196302  0.37467704
   0.09933726  0.38009743  0.55315098
   0.99977952  0.33051389  0.45306987
   0.03002954  0.87904544  0.64352195
   0.14482272  0.33176249  0.36788561
   0.14991706  0.84873212  0.54882842
   0.97888047  0.87608504  0.46520830
   0.98127072  0.43078626  0.65713962
   0.15606574  0.62577553  0.63473338
   0.14721048  0.09173214  0.45072276
   0.73135245  0.60578495  0.36679988
   0.72907290  0.12476343  0.54527906
   0.86923259  0.59196168  0.45825814
   0.88656344  0.14211370  0.65483028
   0.37978986  0.90034711  0.66049956
   0.00576035  0.23912863  0.69101697
   0.25589948  0.14269224  0.65956772
   0.01440187  0.65336532  0.66321477
   0.27907423  0.54079876  0.66978180
   0.40430336  0.32702734  0.66779049
   0.74866926  0.09150597  0.68474567
   0.52440188  0.07913949  0.69150684
   0.16001810  0.81360220  0.68091568
   0.63643825  0.34835459  0.67461870
   0.51288550  0.57624314  0.66971302
   0.86253894  0.50776801  0.69773908
   0.88326287  0.88707260  0.67313657
   0.63326847  0.81173223  0.67350663
   0.73532191  0.60590436  0.64607820
   0.27286369  0.74702708  0.59495482
   0.98372288  0.27566577  0.59755624
   0.11704315  0.61918345  0.55245312
   0.84657389  0.01735898  0.58850944
   0.25185319  0.36839535  0.54294795
   0.50702347  0.75991781  0.59601834
   0.60500466  0.52855263  0.58752729
   0.39125557  0.51672519  0.59184365
   0.98814038  0.84644799  0.55981533
   0.78657325  0.25144306  0.60739536
   0.61038015  0.25246385  0.58365564
   0.70726997  0.77672988  0.58330361
   0.36395254  0.19542279  0.58901291
   0.89609017  0.57274337  0.59711938
 
 position of ions in cartesian coordinates  (Angst):
   8.57630799  8.29684649 10.39845223
   8.56304898  3.73538925 14.87295826
   8.41993942  6.29206901 17.63688625
   8.51616202  0.79995025 12.43873821
  13.36442588  6.13097209 15.03321203
  13.49093588  1.15315590 10.44748880
  10.03343557  3.28428114 12.67411000
  10.21981719  8.79682296 17.62294087
   7.12524148  5.81576681 10.15764776
   6.87992586  1.16441120 15.26797969
   8.51222037  3.28035836 10.20449636
   8.37810717  8.38582944 14.96339121
  10.22263181  8.06723005 12.77991378
  10.52672831  3.89817983 18.09823883
   5.42664188  8.10481479 10.20639088
   5.55932327  3.41784861 14.77389836
   8.52842696  5.75423100 12.65640004
   8.62469075  1.39888523 17.86529438
   3.84829318  7.97316903 12.47259035
   3.98777663  3.47157894 17.24370830
   3.78162174  5.58467731 15.01632662
   3.90063135  0.73891098 10.00000000
  10.30771280  5.68683187 15.40736539
  10.19112400  1.10469510 10.13736353
   6.82945470  7.99424061 12.66669595
   7.10959533  3.72549506 17.43133286
  11.95204867  6.53740898 18.22479780
  11.66772263  1.05372358 12.57547056
  11.73919286  3.33868345 10.41198829
  11.43035354  8.10127535 15.09129825
   7.18521672  3.24643930 12.75389771
   7.24271691  8.74639889 17.90104963
   6.89107668  5.81834319 14.89020253
   6.87794726  0.97559764 10.08695433
   5.51083508  5.55011685 12.48418803
   5.58938322  1.18490713 18.11554011
   3.51249472  3.50019267 12.83518635
   3.28710064  8.89533308 17.77903000
   3.46798404  5.87236796 10.40868071
   3.44045802  1.24835168 14.99393054
  11.91771166  8.21633417 10.24533883
  11.88961881  3.50870145 15.14179245
   5.24135036  3.36542512 10.32678719
   5.25162069  8.22010464 15.07682966
   5.34659302  6.45042535 17.90658020
   5.28930157  0.99064225 12.60849381
   1.60537885  5.84490969 12.85121538
   1.53173649  1.63348507 17.70309756
  13.72037774  5.67134198 10.18293350
  13.51352804  0.81836275 15.20580453
   1.63456451  8.33987442 10.36453009
   1.36800829  3.63543492 15.30157796
  13.76831459  3.16119411 12.53307716
   0.41354730  8.40761408 17.80147136
   1.99440444  3.17313630 10.17666150
   2.06456044  8.11768286 15.18200477
  13.48050634  8.37929939 12.86885734
  13.51342343  4.12024736 18.17817109
   2.14923606  5.98521860 17.55835673
   2.02728715  0.87737042 12.46815015
  10.07171117  5.79401911 10.14662739
  10.04031874  1.19329754 15.08382037
  11.97050705  5.66180669 12.67659812
  12.20917619  1.35924385 18.11428861
   5.23021938  8.61135350 18.27111560
   0.07932780  2.28714143 19.11530574
   3.52408149  1.36477729 18.24533851
   0.19833320  6.24910064 18.34622531
   3.84322907  5.17245989 18.52788624
   5.56780342  3.12784699 18.47280154
  10.31018703  0.87520716 18.94182520
   7.22172222  0.75692817 19.12885671
   2.20366544  7.78168341 18.83587809
   8.76461443  3.33183108 18.66168739
   7.06312623  5.51146703 18.52598348
  11.87832636  4.85653786 19.30125636
  12.16372287  8.48438971 18.62068785
   8.72096232  7.76379812 18.63092473
  10.12637609  5.79516119 17.87218369
   3.75770154  7.14492687 16.45797974
  13.54719294  2.63660022 16.52994166
   1.61184222  5.92216879 15.28227334
  11.65846605  0.16602965 16.27968376
   3.46835869  3.52351059 15.01933591
   6.98239813  7.26822005 16.48739933
   8.33173149  5.05533199 16.25251513
   5.38811779  4.94220867 16.37191657
  13.60802794  8.09583637 15.48593091
  10.83217627  2.40492253 16.80211683
   8.40575917  2.41468593 16.14541518
   9.74006295  7.42901875 16.13567726
   5.01211807  1.86911775 16.29361107
  12.34037207  5.47799353 16.51785703
 


--------------------------------------------------------------------------------------------------------


 k-point  1 :   0.0000 0.0000 0.0000  plane waves:  121663
 k-point  2 :   0.3333 0.0000 0.0000  plane waves:  121577
 k-point  3 :   0.0000 0.3333 0.0000  plane waves:  121622
 k-point  4 :   0.3333 0.3333 0.0000  plane waves:  121647
 k-point  5 :  -0.3333 0.3333 0.0000  plane waves:  121647

 maximum and minimum number of plane-waves per node :      5107     5041

 maximum number of plane-waves:    121663
 maximum index in each direction: 
   IXMAX=   27   IYMAX=   19   IZMAX=   55
   IXMIN=  -27   IYMIN=  -19   IZMIN=  -55

 WARNING: aliasing errors must be expected set NGX to 110 to avoid them
 WARNING: aliasing errors must be expected set NGY to  78 to avoid them
 WARNING: aliasing errors must be expected set NGZ to 222 to avoid them
 aliasing errors are usually negligible using standard VASP settings
 and one can safely disregard these warnings

 parallel 3D FFT for wavefunctions:
    minimum data exchange during FFTs selected (reduces bandwidth)
 parallel 3D FFT for charge:
    minimum data exchange during FFTs selected (reduces bandwidth)


 total amount of memory used by VASP on root node   145537. kBytes
========================================================================

   base      :      30000. kBytes
   nonl-proj :      29469. kBytes
   fftplans  :       6516. kBytes
   grid      :      15878. kBytes
   one-center:         62. kBytes
   wavefun   :      63612. kBytes
 
     INWAV:  cpu time    0.0000: real time    0.0000
 Broyden mixing: mesh for mixing (old mesh)
   NGX = 55   NGY = 39   NGZ =111
  (NGX  =168   NGY  =120   NGZ  =336)
  gives a total of 238095 points

 initial charge density was supplied:
 charge density of overlapping atoms calculated
 number of electron     518.0000000 magnetization 
 keeping initial charge density in first step


--------------------------------------------------------------------------------------------------------


 Maximum index for augmentation-charges         1033 (set IRDMAX)


--------------------------------------------------------------------------------------------------------


 First call to EWALD:  gamma=   0.115
 Maximum number of real-space cells 3x 4x 2
 Maximum number of reciprocal cells 3x 2x 5

 FEWALD executed in parallel
    FEWALD:  cpu time    0.0033: real time    0.0033


----------------------------------------- Iteration    1(   1)  ---------------------------------------


    POTLOK:  cpu time    0.1073: real time    0.1074
    SETDIJ:  cpu time    0.0164: real time    0.0174
     EDDAV:  cpu time   25.3320: real time   25.3401
       DOS:  cpu time    0.0019: real time    0.0019
    --------------------------------------------
      LOOP:  cpu time   25.4602: real time   25.4736

 eigenvalue-minimisations  :  3220
 total energy-change (2. order) : 0.7074489E+04  (-0.2034433E+05)
 number of electron     518.0000000 magnetization 
 augmentation part      518.0000000 magnetization 

 Free energy of the ion-electron system (eV)
  ---------------------------------------------------
  alpha Z        PSCENC =       859.77026231
  Ewald energy   TEWEN  =    150526.61516669
  -Hartree energ DENC   =   -179940.52922163
  -exchange      EXHF   =         0.00000000
  -V(xc)+E(xc)   XCENC  =     -2274.03569394
  PAW double counting   =     29489.21595298   -25450.14362305
  entropy T*S    EENTRO =        -0.00420125
  eigenvalues    EBANDS =      1199.10075146
  atomic energy  EATOM  =     32664.49999242
  Solvation  Ediel_sol  =         0.00000000
  ---------------------------------------------------
  free energy    TOTEN  =      7074.48938600 eV

  energy without entropy =     7074.49358725  energy(sigma->0) =     7074.49043631


--------------------------------------------------------------------------------------------------------




----------------------------------------- Iteration    1(   2)  ---------------------------------------


     EDDAV:  cpu time   25.4372: real time   25.4373
       DOS:  cpu time    0.0018: real time    0.0017
    --------------------------------------------
      LOOP:  cpu time   25.4403: real time   25.4416

 eigenvalue-minimisations  :  3238
 total energy-change (2. order) :-0.5831902E+04  (-0.5646598E+04)
 number of electron     518.0000000 magnetization 
 augmentation part      518.0000000 magnetization 

 Free energy of the ion-electron system (eV)
  ---------------------------------------------------
  alpha Z        PSCENC =       859.77026231
  Ewald energy   TEWEN  =    150526.61516669
  -Hartree energ DENC   =   -179940.52922163
  -exchange      EXHF   =         0.00000000
  -V(xc)+E(xc)   XCENC  =     -2274.03569394
  PAW double counting   =     29489.21595298   -25450.14362305
  entropy T*S    EENTRO =         0.00524672
  eigenvalues    EBANDS =     -4632.81089842
  atomic energy  EATOM  =     32664.49999242
  Solvation  Ediel_sol  =         0.00000000
  ---------------------------------------------------
  free energy    TOTEN  =      1242.58718409 eV

  energy without entropy =     1242.58193737  energy(sigma->0) =     1242.58587241


--------------------------------------------------------------------------------------------------------




----------------------------------------- Iteration    1(   3)  ---------------------------------------


     EDDAV:  cpu time   39.6066: real time   39.6069
       DOS:  cpu time    0.0018: real time    0.0018
    --------------------------------------------
      LOOP:  cpu time   39.6096: real time   39.6117

 eigenvalue-minimisations  :  5568
 total energy-change (2. order) :-0.1854805E+04  (-0.1797693E+04)
 number of electron     518.0000000 magnetization 
 augmentation part      518.0000000 magnetization 

 Free energy of the ion-electron system (eV)
  ---------------------------------------------------
  alpha Z        PSCENC =       859.77026231
  Ewald energy   TEWEN  =    150526.61516669
  -Hartree energ DENC   =   -179940.52922163
  -exchange      EXHF   =         0.00000000
  -V(xc)+E(xc)   XCENC  =     -2274.03569394
  PAW double counting   =     29489.21595298   -25450.14362305
  entropy T*S    EENTRO =        -0.00133672
  eigenvalues    EBANDS =     -6487.60977261
  atomic energy  EATOM  =     32664.49999242
  Solvation  Ediel_sol  =         0.00000000
  ---------------------------------------------------
  free energy    TOTEN  =      -612.21827355 eV

  energy without entropy =     -612.21693683  energy(sigma->0) =     -612.21793937


--------------------------------------------------------------------------------------------------------




----------------------------------------- Iteration    1(   4)  ---------------------------------------


     EDDAV:  cpu time   33.8980: real time   33.8981
       DOS:  cpu time    0.0018: real time    0.0018
    --------------------------------------------
      LOOP:  cpu time   33.9013: real time   33.9029

 eigenvalue-minimisations  :  4632
 total energy-change (2. order) :-0.2776269E+03  (-0.2705168E+03)
 number of electron     518.0000000 magnetization 
 augmentation part      518.0000000 magnetization 

 Free energy of the ion-electron system (eV)
  ---------------------------------------------------
  alpha Z        PSCENC =       859.77026231
  Ewald energy   TEWEN  =    150526.61516669
  -Hartree energ DENC   =   -179940.52922163
  -exchange      EXHF   =         0.00000000
  -V(xc)+E(xc)   XCENC  =     -2274.03569394
  PAW double counting   =     29489.21595298   -25450.14362305
  entropy T*S    EENTRO =         0.00357265
  eigenvalues    EBANDS =     -6765.24162050
  atomic energy  EATOM  =     32664.49999242
  Solvation  Ediel_sol  =         0.00000000
  ---------------------------------------------------
  free energy    TOTEN  =      -889.84521207 eV

  energy without entropy =     -889.84878471  energy(sigma->0) =     -889.84610523


--------------------------------------------------------------------------------------------------------




----------------------------------------- Iteration    1(   5)  ---------------------------------------


     EDDAV:  cpu time   39.7031: real time   39.7033
       DOS:  cpu time    0.0018: real time    0.0018
    CHARGE:  cpu time    0.3881: real time    0.3881
    MIXING:  cpu time    0.0070: real time    0.0077
    --------------------------------------------
      LOOP:  cpu time   40.1013: real time   40.1036

 eigenvalue-minimisations  :  5584
 total energy-change (2. order) :-0.2000525E+02  (-0.1953024E+02)
 number of electron     517.9999877 magnetization 
 augmentation part       62.6625525 magnetization 

 Broyden mixing:
  rms(total) = 0.88888E+01    rms(broyden)= 0.88886E+01
  rms(prec ) = 0.93134E+01
  weight for this iteration     100.00

 Free energy of the ion-electron system (eV)
  ---------------------------------------------------
  alpha Z        PSCENC =       859.77026231
  Ewald energy   TEWEN  =    150526.61516669
  -Hartree energ DENC   =   -179940.52922163
  -exchange      EXHF   =         0.00000000
  -V(xc)+E(xc)   XCENC  =     -2274.03569394
  PAW double counting   =     29489.21595298   -25450.14362305
  entropy T*S    EENTRO =        -0.00907413
  eigenvalues    EBANDS =     -6785.23422370
  atomic energy  EATOM  =     32664.49999242
  Solvation  Ediel_sol  =         0.00000000
  ---------------------------------------------------
  free energy    TOTEN  =      -909.85046204 eV

  energy without entropy =     -909.84138792  energy(sigma->0) =     -909.84819351


--------------------------------------------------------------------------------------------------------




----------------------------------------- Iteration    1(   6)  ---------------------------------------


    POTLOK:  cpu time    0.0993: real time    0.0993
    SETDIJ:  cpu time    0.0102: real time    0.0102
    EDDIAG:  cpu time    1.5562: real time    1.5564
  RMM-DIIS:  cpu time   28.3147: real time   28.3150
    ORTHCH:  cpu time    0.4148: real time    0.4148
       DOS:  cpu time    0.0019: real time    0.0019
    CHARGE:  cpu time    0.3984: real time    0.3984
    MIXING:  cpu time    0.0050: real time    0.0051
    --------------------------------------------
      LOOP:  cpu time   30.8024: real time   30.8047

 eigenvalue-minimisations  :  5064
 total energy-change (2. order) : 0.1743690E+02  (-0.1656187E+03)
 number of electron     517.9999901 magnetization 
 augmentation part       75.7964328 magnetization 

 Broyden mixing:
  rms(total) = 0.51129E+01    rms(broyden)= 0.51125E+01
  rms(prec ) = 0.61823E+01
  weight for this iteration     100.00

 eigenvalues of (default mixing * dielectric matrix)
  average eigenvalue GAMMA=   0.8036
  0.8036

 Free energy of the ion-electron system (eV)
  ---------------------------------------------------
  alpha Z        PSCENC =       859.77026231
  Ewald energy   TEWEN  =    150526.61516669
  -Hartree energ DENC   =   -181018.18937673
  -exchange      EXHF   =         0.00000000
  -V(xc)+E(xc)   XCENC  =     -2222.79090121
  PAW double counting   =     35137.47310571   -31114.12481622
  entropy T*S    EENTRO =         0.00455434
  eigenvalues    EBANDS =     -5725.67154462
  atomic energy  EATOM  =     32664.49999242
  Solvation  Ediel_sol  =         0.00000000
  ---------------------------------------------------
  free energy    TOTEN  =      -892.41355732 eV

  energy without entropy =     -892.41811165  energy(sigma->0) =     -892.41469590


--------------------------------------------------------------------------------------------------------




----------------------------------------- Iteration    1(   7)  ---------------------------------------


    POTLOK:  cpu time    0.0968: real time    0.0968
    SETDIJ:  cpu time    0.0097: real time    0.0097
    EDDIAG:  cpu time    1.5394: real time    1.5395
  RMM-DIIS:  cpu time   22.6219: real time   22.6230
    ORTHCH:  cpu time    0.4128: real time    0.4128
       DOS:  cpu time    0.0019: real time    0.0019
    CHARGE:  cpu time    0.3894: real time    0.3894
    MIXING:  cpu time    0.0039: real time    0.0056
    --------------------------------------------
      LOOP:  cpu time   25.0779: real time   25.0823

 eigenvalue-minimisations  :  4032
 total energy-change (2. order) : 0.7889392E+01  (-0.4255821E+02)
 number of electron     517.9999908 magnetization 
 augmentation part       71.9815397 magnetization 

 Broyden mixing:
  rms(total) = 0.45669E+01    rms(broyden)= 0.45669E+01
  rms(prec ) = 0.68492E+01
  weight for this iteration     100.00

 eigenvalues of (default mixing * dielectric matrix)
  average eigenvalue GAMMA=   0.7056
  1.0218  0.3893

 Free energy of the ion-electron system (eV)
  ---------------------------------------------------
  alpha Z        PSCENC =       859.77026231
  Ewald energy   TEWEN  =    150526.61516669
  -Hartree energ DENC   =   -180262.84912512
  -exchange      EXHF   =         0.00000000
  -V(xc)+E(xc)   XCENC  =     -2229.55146658
  PAW double counting   =     36305.48825839   -32295.01176655
  entropy T*S    EENTRO =        -0.02496881
  eigenvalues    EBANDS =     -6453.46051763
  atomic energy  EATOM  =     32664.49999242
  Solvation  Ediel_sol  =         0.00000000
  ---------------------------------------------------
  free energy    TOTEN  =      -884.52416488 eV

  energy without entropy =     -884.49919607  energy(sigma->0) =     -884.51792268


--------------------------------------------------------------------------------------------------------




----------------------------------------- Iteration    1(   8)  ---------------------------------------


    POTLOK:  cpu time    0.0959: real time    0.0959
    SETDIJ:  cpu time    0.0094: real time    0.0094
    EDDIAG:  cpu time    1.5698: real time    1.5722
  RMM-DIIS:  cpu time   27.3646: real time   27.3648
    ORTHCH:  cpu time    0.4150: real time    0.4150
       DOS:  cpu time    0.0019: real time    0.0019
    CHARGE:  cpu time    0.3907: real time    0.3907
    MIXING:  cpu time    0.0037: real time    0.0037
    --------------------------------------------
      LOOP:  cpu time   29.8532: real time   29.8576

 eigenvalue-minimisations  :  4886
 total energy-change (2. order) : 0.3602983E+02  (-0.2351143E+02)
 number of electron     517.9999910 magnetization 
 augmentation part       62.4884589 magnetization 

 Broyden mixing:
  rms(total) = 0.38032E+01    rms(broyden)= 0.38032E+01
  rms(prec ) = 0.58905E+01
  weight for this iteration     100.00

 eigenvalues of (default mixing * dielectric matrix)
  average eigenvalue GAMMA=   0.6554
  1.2696  0.4084  0.2884

 Free energy of the ion-electron system (eV)
  ---------------------------------------------------
  alpha Z        PSCENC =       859.77026231
  Ewald energy   TEWEN  =    150526.61516669
  -Hartree energ DENC   =   -180848.26083015
  -exchange      EXHF   =         0.00000000
  -V(xc)+E(xc)   XCENC  =     -2230.99153495
  PAW double counting   =     37466.19616566   -33457.61648820
  entropy T*S    EENTRO =         0.01640645
  eigenvalues    EBANDS =     -5828.72347704
  atomic energy  EATOM  =     32664.49999242
  Solvation  Ediel_sol  =         0.00000000
  ---------------------------------------------------
  free energy    TOTEN  =      -848.49433681 eV

  energy without entropy =     -848.51074326  energy(sigma->0) =     -848.49843842


--------------------------------------------------------------------------------------------------------




----------------------------------------- Iteration    1(   9)  ---------------------------------------


    POTLOK:  cpu time    0.0956: real time    0.0956
    SETDIJ:  cpu time    0.0097: real time    0.0097
    EDDIAG:  cpu time    1.5705: real time    1.5705
  RMM-DIIS:  cpu time   25.1883: real time   25.1884
    ORTHCH:  cpu time    0.4133: real time    0.4133
       DOS:  cpu time    0.0018: real time    0.0018
    CHARGE:  cpu time    0.3848: real time    0.3848
    MIXING:  cpu time    0.0039: real time    0.0039
    --------------------------------------------
      LOOP:  cpu time   27.6699: real time   27.6715

 eigenvalue-minimisations  :  4452
 total energy-change (2. order) : 0.5044918E+02  (-0.7361649E+01)
 number of electron     517.9999901 magnetization 
 augmentation part       64.3480934 magnetization 

 Broyden mixing:
  rms(total) = 0.23617E+01    rms(broyden)= 0.23617E+01
  rms(prec ) = 0.29813E+01
  weight for this iteration     100.00

 eigenvalues of (default mixing * dielectric matrix)
  average eigenvalue GAMMA=   0.7024
  1.6006  0.4998  0.4998  0.2095

 Free energy of the ion-electron system (eV)
  ---------------------------------------------------
  alpha Z        PSCENC =       859.77026231
  Ewald energy   TEWEN  =    150526.61516669
  -Hartree energ DENC   =   -180654.65288329
  -exchange      EXHF   =         0.00000000
  -V(xc)+E(xc)   XCENC  =     -2229.21524020
  PAW double counting   =     38625.74973432   -34611.01922961
  entropy T*S    EENTRO =         0.00267958
  eigenvalues    EBANDS =     -5979.79564104
  atomic energy  EATOM  =     32664.49999242
  Solvation  Ediel_sol  =         0.00000000
  ---------------------------------------------------
  free energy    TOTEN  =      -798.04515882 eV

  energy without entropy =     -798.04783841  energy(sigma->0) =     -798.04582872


--------------------------------------------------------------------------------------------------------




----------------------------------------- Iteration    1(  10)  ---------------------------------------


    POTLOK:  cpu time    0.0959: real time    0.0959
    SETDIJ:  cpu time    0.0096: real time    0.0096
    EDDIAG:  cpu time    1.5615: real time    1.5615
  RMM-DIIS:  cpu time   23.4724: real time   23.4724
    ORTHCH:  cpu time    0.4143: real time    0.4143
       DOS:  cpu time    0.0019: real time    0.0019
    CHARGE:  cpu time    0.3860: real time    0.3860
    MIXING:  cpu time    0.0043: real time    0.0043
    --------------------------------------------
      LOOP:  cpu time   25.9479: real time   25.9498

 eigenvalue-minimisations  :  4186
 total energy-change (2. order) : 0.9017674E+01  (-0.8921203E+01)
 number of electron     517.9999904 magnetization 
 augmentation part       69.4082868 magnetization 

 Broyden mixing:
  rms(total) = 0.14657E+01    rms(broyden)= 0.14657E+01
  rms(prec ) = 0.17971E+01
  weight for this iteration     100.00

 eigenvalues of (default mixing * dielectric matrix)
  average eigenvalue GAMMA=   0.7435
  1.9612  0.7232  0.4834  0.3627  0.1869

 Free energy of the ion-electron system (eV)
  ---------------------------------------------------
  alpha Z        PSCENC =       859.77026231
  Ewald energy   TEWEN  =    150526.61516669
  -Hartree energ DENC   =   -180829.28563190
  -exchange      EXHF   =         0.00000000
  -V(xc)+E(xc)   XCENC  =     -2223.66079124
  PAW double counting   =     39932.65964544   -35908.87989991
  entropy T*S    EENTRO =         0.00299668
  eigenvalues    EBANDS =     -5810.74922551
  atomic energy  EATOM  =     32664.49999242
  Solvation  Ediel_sol  =         0.00000000
  ---------------------------------------------------
  free energy    TOTEN  =      -789.02748501 eV

  energy without entropy =     -789.03048169  energy(sigma->0) =     -789.02823418


--------------------------------------------------------------------------------------------------------




----------------------------------------- Iteration    1(  11)  ---------------------------------------


    POTLOK:  cpu time    0.0959: real time    0.0959
    SETDIJ:  cpu time    0.0096: real time    0.0096
    EDDIAG:  cpu time    1.5544: real time    1.5544
  RMM-DIIS:  cpu time   25.9043: real time   25.9044
    ORTHCH:  cpu time    0.4157: real time    0.4157
       DOS:  cpu time    0.0018: real time    0.0018
    CHARGE:  cpu time    0.3823: real time    0.3823
    MIXING:  cpu time    0.0043: real time    0.0043
[...]
   0.501E+02 0.206E+02 -.653E+03   -.516E+02 -.219E+02 0.653E+03   0.154E+01 0.128E+01 -.704E+00   -.206E-02 -.509E-03 -.157E-02
   0.169E+03 -.202E+02 0.501E+03   -.168E+03 0.202E+02 -.501E+03   -.172E+01 0.312E+00 0.877E+00   -.140E-03 -.320E-03 -.121E-03
   0.267E+03 0.555E+01 -.523E+03   -.267E+03 -.472E+01 0.524E+03   -.327E-02 -.835E+00 -.912E+00   0.217E-02 -.781E-03 -.924E-03
   0.113E+03 -.814E+02 0.177E+03   -.112E+03 0.823E+02 -.180E+03   -.116E+01 -.851E+00 0.253E+01   0.336E-03 0.103E-03 -.107E-02
   0.116E+03 -.531E+02 0.667E+03   -.115E+03 0.532E+02 -.664E+03   -.764E+00 -.200E+00 -.276E+01   0.128E-02 -.109E-04 0.133E-02
   -.123E+03 0.636E+02 0.154E+03   0.123E+03 -.632E+02 -.157E+03   -.216E+00 -.437E+00 0.223E+01   -.651E-03 -.127E-02 -.914E-03
   -.990E+02 0.605E+02 0.721E+03   0.984E+02 -.600E+02 -.718E+03   0.408E+00 -.355E+00 -.279E+01   -.113E-02 0.122E-02 0.146E-02
   0.753E+02 -.264E+02 0.438E+03   -.762E+02 0.255E+02 -.437E+03   0.876E+00 0.996E+00 -.942E+00   -.126E-02 0.652E-03 -.429E-03
   0.616E+02 0.587E+01 -.444E+03   -.617E+02 -.563E+01 0.446E+03   0.150E+00 -.240E+00 -.225E+01   -.685E-03 -.281E-03 -.149E-02
   -.125E+03 -.524E+02 -.587E+03   0.125E+03 0.519E+02 0.587E+03   -.215E-02 0.503E+00 0.342E+00   -.838E-03 -.236E-03 -.124E-02
   -.159E+03 0.314E+01 0.465E+03   0.158E+03 -.296E+01 -.465E+03   0.437E+00 -.419E+00 -.185E+00   -.812E-03 0.167E-02 0.627E-03
   -.149E+03 -.370E+01 0.689E+03   0.148E+03 0.368E+01 -.685E+03   0.787E+00 -.821E-01 -.266E+01   -.811E-03 0.421E-03 0.161E-02
   -.180E+03 0.197E+02 0.183E+03   0.180E+03 -.194E+02 -.186E+03   0.238E+00 -.312E+00 0.225E+01   -.481E-03 -.617E-03 0.858E-04
   0.619E+02 0.237E+02 0.473E+03   -.614E+02 -.233E+02 -.474E+03   -.324E+00 -.108E+00 -.461E+00   0.631E-03 -.754E-03 0.472E-03
   0.112E+03 -.728E+01 -.538E+03   -.111E+03 0.861E+01 0.537E+03   -.103E+01 -.133E+01 0.636E+00   -.872E-03 0.745E-04 -.798E-03
   0.739E+02 -.341E+02 0.215E+03   -.737E+02 0.345E+02 -.218E+03   -.117E+00 -.401E+00 0.286E+01   0.390E-03 -.162E-02 0.417E-03
   0.331E+02 0.156E+01 0.700E+03   -.338E+02 -.161E+01 -.697E+03   0.541E+00 0.995E-02 -.253E+01   -.498E-03 0.727E-03 0.137E-02
   0.128E+03 -.809E+01 0.447E+03   -.127E+03 0.801E+01 -.446E+03   -.987E+00 0.731E+00 -.599E+00   -.377E-03 -.136E-02 -.102E-02
   0.101E+03 0.498E+02 -.603E+03   -.100E+03 -.482E+02 0.602E+03   -.806E+00 -.160E+01 0.752E+00   0.124E-02 0.683E-05 -.119E-02
   0.138E+03 0.165E+02 0.511E+03   -.138E+03 -.164E+02 -.513E+03   0.283E+00 -.228E+00 0.148E+01   0.799E-03 -.140E-04 -.384E-03
   0.923E+02 -.424E+02 -.421E+03   -.937E+02 0.431E+02 0.421E+03   0.135E+01 -.676E+00 0.518E+00   0.204E-02 0.521E-04 -.898E-03
   0.125E+03 0.358E+02 0.642E+03   -.125E+03 -.356E+02 -.639E+03   0.162E+00 -.538E+00 -.304E+01   0.698E-03 -.640E-04 0.100E-02
   0.186E+03 0.108E+03 0.146E+03   -.185E+03 -.109E+03 -.147E+03   -.752E+00 0.222E+00 0.162E+00   0.169E-02 -.655E-04 -.106E-02
   -.964E+02 -.278E+01 0.693E+03   0.967E+02 0.285E+01 -.689E+03   -.591E+00 -.367E-02 -.329E+01   -.326E-03 -.332E-03 0.670E-03
   -.141E+03 0.597E-02 0.189E+03   0.141E+03 -.676E+00 -.190E+03   0.431E+00 0.673E+00 0.174E+01   -.130E-02 0.473E-03 -.142E-02
   0.128E+03 0.311E+02 0.669E+03   -.128E+03 -.314E+02 -.666E+03   -.191E+00 0.396E+00 -.241E+01   0.554E-03 0.621E-03 0.124E-02
   0.154E+03 -.212E+02 0.135E+03   -.154E+03 0.221E+02 -.138E+03   0.318E-01 -.918E+00 0.305E+01   -.194E-03 0.130E-02 -.183E-04
   0.102E+03 -.474E+02 -.578E+03   -.101E+03 0.450E+02 0.577E+03   -.570E+00 0.240E+01 0.164E+01   0.141E-02 0.266E-03 -.400E-03
   0.117E+03 0.155E+02 0.474E+03   -.117E+03 -.157E+02 -.474E+03   0.332E+00 -.177E+00 -.569E+00   0.418E-03 0.111E-02 0.980E-03
   0.353E+02 -.178E+01 0.458E+03   -.352E+02 0.183E+01 -.460E+03   0.266E+00 -.167E-01 0.890E+00   0.504E-03 0.810E-05 -.590E-03
   -.162E+02 0.268E+02 -.405E+03   0.165E+02 -.278E+02 0.404E+03   -.315E+00 0.999E+00 0.428E+00   0.659E-03 0.754E-03 -.796E-03
   -.389E+02 0.790E-01 0.648E+03   0.393E+02 0.239E+00 -.644E+03   -.178E+00 -.207E+00 -.295E+01   0.890E-03 -.935E-03 0.131E-02
   -.144E+03 -.271E+02 0.149E+03   0.144E+03 0.275E+02 -.150E+03   -.191E+00 -.303E+00 0.447E+00   -.939E-04 0.425E-03 -.111E-02
   0.504E+02 -.600E+01 0.629E+03   -.505E+02 0.526E+01 -.626E+03   0.145E-01 0.258E+00 -.323E+01   0.147E-02 -.956E-03 0.134E-02
   0.493E+02 0.434E+02 0.846E+02   -.486E+02 -.442E+02 -.850E+02   -.668E+00 0.749E+00 0.384E+00   0.184E-03 0.176E-03 -.121E-02
   -.655E+02 0.797E+01 0.447E+03   0.656E+02 -.761E+01 -.447E+03   0.101E+00 0.221E+00 0.150E-01   -.154E-04 0.638E-03 0.146E-03
   -.915E+02 -.752E+02 -.438E+03   0.930E+02 0.755E+02 0.438E+03   -.140E+01 -.335E+00 0.178E+00   -.256E-03 -.215E-03 -.750E-03
   0.426E+02 0.386E+01 0.642E+03   -.419E+02 -.378E+01 -.638E+03   -.860E+00 -.310E+00 -.334E+01   0.619E-03 0.106E-02 0.964E-03
   0.706E+01 -.881E+02 0.121E+03   -.696E+01 0.887E+02 -.121E+03   -.994E-01 -.634E+00 0.299E+00   0.865E-03 -.156E-03 -.199E-02
   -.997E+02 -.151E+02 0.451E+03   0.990E+02 0.146E+02 -.453E+03   0.958E+00 0.130E+00 0.951E+00   0.741E-03 -.422E-03 0.492E-03
   -.175E+03 0.157E+02 -.524E+03   0.174E+03 -.165E+02 0.524E+03   0.145E+01 0.790E+00 0.221E-01   -.183E-03 -.130E-03 -.753E-03
   0.408E+02 0.413E+02 -.414E+03   -.404E+02 -.410E+02 0.415E+03   -.375E+00 -.326E+00 -.619E+00   0.500E-03 -.393E-03 -.644E-03
   0.547E+02 0.533E+00 0.440E+03   -.540E+02 -.678E+00 -.441E+03   -.106E+01 0.380E+00 0.110E+00   0.111E-02 0.924E-04 0.742E-03
   -.141E+03 -.437E+02 0.720E+03   0.140E+03 0.431E+02 -.717E+03   0.804E+00 0.216E-01 -.345E+01   -.118E-02 -.120E-02 0.102E-02
   -.105E+03 -.253E+02 0.196E+03   0.106E+03 0.248E+02 -.196E+03   -.292E+00 0.538E+00 0.255E+00   -.135E-02 0.121E-02 -.114E-02
   -.146E+03 0.108E+02 0.461E+03   0.145E+03 -.106E+02 -.460E+03   0.387E+00 0.252E+00 -.307E+00   -.201E-03 -.135E-02 0.519E-03
   -.184E+03 0.104E+02 -.564E+03   0.183E+03 -.959E+01 0.563E+03   0.879E+00 -.799E+00 0.121E+01   -.720E-03 0.221E-03 -.715E-03
   0.158E+03 0.219E+02 -.929E+03   -.159E+03 -.209E+02 0.936E+03   0.103E+01 -.103E+01 -.712E+01   0.535E-02 0.316E-03 -.166E-02
   -.164E+03 0.381E+02 -.109E+04   0.166E+03 -.407E+02 0.110E+04   -.284E+01 0.261E+01 -.178E+02   -.636E-03 0.703E-03 -.646E-03
   0.196E+03 0.181E+02 -.901E+03   -.195E+03 -.166E+02 0.910E+03   -.111E+01 -.149E+01 -.869E+01   0.427E-02 0.228E-02 -.149E-02
   -.169E+03 0.486E+01 -.878E+03   0.171E+03 -.307E+01 0.886E+03   -.175E+01 -.179E+01 -.784E+01   0.146E-02 -.905E-03 -.166E-02
   0.158E+03 0.704E-01 -.104E+04   -.159E+03 -.371E+01 0.106E+04   0.872E+00 0.364E+01 -.179E+02   0.227E-02 -.353E-03 -.157E-02
   0.131E+03 -.124E+02 -.111E+04   -.128E+03 0.182E+02 0.113E+04   -.238E+01 -.574E+01 -.197E+02   0.142E-02 -.107E-02 -.295E-02
   -.955E+02 -.696E+02 -.126E+04   0.969E+02 0.708E+02 0.128E+04   -.137E+01 -.124E+01 -.205E+02   -.680E-03 -.599E-03 -.177E-02
   0.107E+03 0.507E+01 -.124E+04   -.109E+03 -.411E+01 0.127E+04   0.142E+01 -.971E+00 -.239E+02   -.232E-02 -.123E-02 -.209E-02
   0.177E+02 -.355E+02 -.104E+04   -.184E+02 0.315E+02 0.106E+04   0.754E+00 0.402E+01 -.197E+02   0.545E-03 -.190E-02 0.746E-03
   0.169E+03 0.227E+02 -.118E+04   -.178E+03 -.175E+02 0.119E+04   0.907E+01 -.520E+01 -.174E+02   -.161E-02 0.136E-02 -.231E-02
   0.129E+03 -.214E+02 -.113E+04   -.130E+03 0.149E+02 0.115E+04   0.131E+01 0.650E+01 -.194E+02   -.375E-03 0.315E-03 -.259E-02
   -.216E+03 -.305E+02 -.130E+04   0.216E+03 0.313E+02 0.132E+04   -.207E+00 -.840E+00 -.211E+02   -.131E-02 -.224E-02 -.882E-03
   -.282E+03 -.200E+02 -.107E+04   0.282E+03 0.251E+02 0.108E+04   -.388E+00 -.508E+01 -.115E+02   -.151E-02 0.202E-02 -.154E-02
   0.115E+03 0.506E+02 -.122E+04   -.111E+03 -.504E+02 0.124E+04   -.394E+01 -.227E+00 -.220E+02   -.279E-02 0.451E-03 -.258E-02
   -.418E+02 -.105E+03 -.791E+03   0.436E+02 0.113E+03 0.793E+03   -.175E+01 -.825E+01 -.157E+01   -.342E-02 -.103E-02 -.227E-02
   0.136E+03 -.886E+02 -.237E+03   -.135E+03 0.901E+02 0.237E+03   -.108E+01 -.153E+01 0.265E-02   0.255E-02 -.612E-04 -.139E-02
   -.193E+03 0.233E+02 -.193E+03   0.191E+03 -.233E+02 0.193E+03   0.218E+01 -.727E-02 0.107E+00   -.112E-02 0.635E-03 -.112E-02
   0.481E+02 0.558E+01 0.131E+03   -.480E+02 -.602E+01 -.131E+03   -.163E+00 0.432E+00 -.163E+00   -.811E-03 0.795E-03 -.315E-02
   -.303E+03 -.794E+02 -.726E+02   0.306E+03 0.809E+02 0.733E+02   -.383E+01 -.143E+01 -.778E+00   -.193E-02 0.758E-03 0.384E-03
   0.360E+03 0.354E+02 0.193E+03   -.363E+03 -.373E+02 -.196E+03   0.343E+01 0.187E+01 0.256E+01   0.240E-02 -.194E-02 -.670E-03
   0.222E+03 -.946E+01 -.307E+03   -.223E+03 0.923E+01 0.303E+03   0.700E+00 0.223E+00 0.323E+01   -.284E-03 0.201E-02 0.311E-02
   0.532E+01 0.177E+02 -.136E+03   -.306E+01 -.187E+02 0.137E+03   -.226E+01 0.105E+01 -.101E+01   0.248E-03 -.206E-02 -.230E-03
   0.146E+03 -.127E+03 -.317E+03   -.142E+03 0.131E+03 0.317E+03   -.382E+01 -.360E+01 0.117E+00   0.188E-02 -.215E-02 0.114E-02
   -.175E+03 -.456E+02 0.871E+02   0.173E+03 0.471E+02 -.846E+02   0.133E+01 -.153E+01 -.250E+01   0.816E-03 -.146E-02 -.159E-02
   -.197E+03 0.575E+02 -.213E+03   0.195E+03 -.630E+02 0.208E+03   0.225E+01 0.547E+01 0.518E+01   -.121E-02 0.755E-03 -.128E-02
   -.728E+02 -.307E+02 -.148E+03   0.757E+02 0.346E+02 0.148E+03   -.297E+01 -.395E+01 0.266E+00   -.265E-02 0.131E-02 -.326E-02
   -.144E+03 0.123E+03 -.910E+02   0.142E+03 -.127E+03 0.947E+02   0.123E+01 0.494E+01 -.371E+01   -.115E-02 -.969E-03 0.655E-03
   0.276E+03 0.160E+03 -.299E+03   -.275E+03 -.166E+03 0.299E+03   -.546E+00 0.601E+01 -.462E+00   0.289E-02 0.114E-03 -.140E-02
   -.224E+03 0.232E+02 -.146E+03   0.223E+03 -.237E+02 0.146E+03   0.112E+01 0.443E+00 -.596E+00   -.901E-03 -.671E-03 -.359E-02
 -----------------------------------------------------------------------------------------------
   0.107E+01 0.721E+01 0.249E+03   0.114E-12 0.259E-12 0.966E-12   -.106E+01 -.720E+01 -.248E+03   -.132E-01 -.804E-02 -.414E-01
 
 
 POSITION                                       TOTAL-FORCE (eV/Angst)
 -----------------------------------------------------------------------------------
      8.57631      8.29685     10.39845        -0.039597     -0.173602      0.119054
      8.56305      3.73539     14.87296        -0.004283     -0.012467     -0.008306
      8.41994      6.29207     17.63689        -0.006625     -0.003737     -0.012235
      8.51616      0.79995     12.43874         0.038574     -0.124354      0.539035
     13.36443      6.13097     15.03321        -0.005684      0.013532      0.004744
     13.49094      1.15316     10.44749        -0.001089     -0.442400      0.031114
     10.03344      3.28428     12.67411         0.572598      0.233347     -0.441868
     10.21982      8.79682     17.62294        -0.006113      0.002232     -0.011126
      7.12524      5.81577     10.15765        -0.152813     -0.421248      0.877370
      6.87993      1.16441     15.26798        -0.001857     -0.005901      0.000770
      8.51222      3.28036     10.20450         0.232346      0.066309      0.723087
      8.37811      8.38583     14.96339        -0.004271      0.002635      0.002082
     10.22263      8.06723     12.77991        -0.017970      0.670580     -1.000833
     10.52673      3.89818     18.09824         0.000989      0.012614      0.005533
      5.42664      8.10481     10.20639         0.280982      0.111791      0.896915
      5.55932      3.41785     14.77390        -0.000105     -0.009950      0.004965
      8.52843      5.75423     12.65640         0.347925      0.048235     -0.286971
      8.62469      1.39889     17.86529         0.003877     -0.007640      0.028355
      3.84829      7.97317     12.47259        -0.669291      0.314705      0.082276
      3.98778      3.47158     17.24371         0.011754     -0.003528      0.015131
      3.78162      5.58468     15.01633        -0.002232     -0.013749      0.007479
      3.90063      0.73891     10.00000         0.490494     -0.133405      0.256127
     10.30771      5.68683     15.40737        -0.005623     -0.008525     -0.051063
     10.19112      1.10470     10.13736        -0.223531      0.138419      0.398536
      6.82945      7.99424     12.66670         0.005798      0.115669     -0.826714
      7.10960      3.72550     17.43133         0.015557     -0.000281     -0.001573
     11.95205      6.53741     18.22480         0.010869      0.002710      0.000433
     11.66772      1.05372     12.57547        -0.360564     -0.236773     -0.291989
     11.73919      3.33868     10.41199        -0.294151     -0.098883      0.511921
     11.43035      8.10128     15.09130         0.000326      0.008210     -0.000219
      7.18522      3.24644     12.75390         0.096193      0.328180     -1.524071
      7.24272      8.74640     17.90105        -0.007275     -0.007082     -0.004074
      6.89108      5.81834     14.89020         0.003729     -0.009345      0.004077
      6.87795      0.97560     10.08695        -0.112162     -0.045938      0.264452
      5.51084      5.55012     12.48419        -0.306774      0.655769     -0.076207
      5.58938      1.18491     18.11554         0.001131      0.009241      0.012046
      3.51249      3.50019     12.83519        -0.247459     -0.118869     -0.262747
      3.28710      8.89533     17.77903         0.004832      0.001075     -0.007533
      3.46798      5.87237     10.40868         0.011214     -0.268342     -0.167136
      3.44046      1.24835     14.99393        -0.002991     -0.006968      0.003158
     11.91771      8.21633     10.24534        -0.257076      0.060124      0.640284
     11.88962      3.50870     15.14179         0.007036      0.003342      0.004093
      5.24135      3.36543     10.32679         0.111517      0.102841      0.088431
      5.25162      8.22010     15.07683         0.000255     -0.005330     -0.004824
      5.34659      6.45043     17.90658         0.004039     -0.006552     -0.002969
      5.28930      0.99064     12.60849         0.200126     -0.340640     -0.487357
      1.60538      5.84491     12.85122         0.374862      0.028600     -0.636404
      1.53174      1.63349     17.70310        -0.003476      0.006071      0.022850
     13.72038      5.67134     10.18293         0.201005      0.110786      0.644764
     13.51353      0.81836     15.20580         0.007546      0.004308      0.012290
      1.63456      8.33987     10.36453        -0.054129     -0.476792      0.114194
      1.36801      3.63543     15.30158         0.005034      0.002194      0.019576
     13.76831      3.16119     12.53308         0.188601      0.580521     -0.083966
      0.41355      8.40761     17.80147         0.014671      0.001195      0.017162
      1.99440      3.17314     10.17666        -0.120039     -0.220066      0.656988
      2.06456      8.11768     15.18200         0.002934     -0.002435      0.004507
     13.48051      8.37930     12.86886         0.326671     -0.374882     -0.453088
     13.51342      4.12025     18.17817        -0.001331     -0.005930      0.032196
      2.14924      5.98522     17.55836         0.005192     -0.004977      0.016663
      2.02729      0.87737     12.46815        -0.386961      0.235165     -0.500091
     10.07171      5.79402     10.14663         0.075604     -0.610134      0.132960
     10.04032      1.19330     15.08382        -0.001454      0.002313      0.004340
     11.97051      5.66181     12.67660        -0.510786      0.381235     -0.181030
     12.20918      1.35924     18.11429        -0.000964     -0.005257      0.003801
      5.23022      8.61135     18.27112        -0.005007     -0.002498     -0.007211
      0.07933      2.28714     19.11531        -0.008017     -0.010001      0.020210
      3.52408      1.36478     18.24534         0.004122      0.008791      0.010990
      0.19833      6.24910     18.34623         0.015485     -0.000937      0.051991
      3.84323      5.17246     18.52789         0.005789     -0.001094      0.007250
      5.56780      3.12785     18.47280         0.003878     -0.001969      0.002628
     10.31019      0.87521     18.94183        -0.002162     -0.008661      0.000485
      7.22172      0.75693     19.12886         0.005823     -0.017199      0.000575
      2.20367      7.78168     18.83588         0.027902      0.002265      0.006840
      8.76461      3.33183     18.66169         0.009322     -0.002559      0.003037
      7.06313      5.51147     18.52598         0.014824      0.003433     -0.014025
     11.87833      4.85654     19.30126        -0.006456      0.007164      0.006651
     12.16372      8.48439     18.62069         0.006961      0.005919     -0.011760
      8.72096      7.76380     18.63092         0.005150     -0.002328     -0.008278
     10.12638      5.79516     17.87218         0.013849      0.012513      0.004407
      3.75770      7.14493     16.45798        -0.002385     -0.013355      0.001873
     13.54719      2.63660     16.52994         0.008324      0.011514      0.017213
      1.61184      5.92217     15.28227        -0.015224     -0.004979      0.010677
     11.65847      0.16603     16.27968         0.007171      0.009773     -0.009043
      3.46836      3.52351     15.01934         0.004917     -0.012398      0.005955
      6.98240      7.26822     16.48740         0.001590     -0.002744     -0.006813
      8.33173      5.05533     16.25252         0.004976     -0.006215     -0.006121
      5.38812      4.94221     16.37192        -0.000684     -0.005673      0.000940
     13.60803      8.09584     15.48593        -0.001544     -0.004122      0.008742
     10.83218      2.40492     16.80212         0.011481      0.010542      0.001241
      8.40576      2.41469     16.14542         0.003435     -0.004800      0.002389
      9.74006      7.42902     16.13568        -0.003744     -0.008772     -0.006705
      5.01212      1.86912     16.29361        -0.002536     -0.009356      0.004350
     12.34037      5.47799     16.51786         0.047152     -0.000217      0.022148
 -----------------------------------------------------------------------------------
    total drift:                               -0.003426     -0.001539     -0.000052


--------------------------------------------------------------------------------------------------------



  FREE ENERGIE OF THE ION-ELECTRON SYSTEM (eV)
  ---------------------------------------------------
  free  energy   TOTEN  =      -782.48553290 eV

  energy  without entropy=     -782.48962156  energy(sigma->0) =     -782.48655506
 


--------------------------------------------------------------------------------------------------------


    POTLOK:  cpu time    0.1134: real time    0.1135


--------------------------------------------------------------------------------------------------------


     LOOP+:  cpu time  969.8247: real time  969.9471
    4ORBIT:  cpu time    0.0000: real time    0.0000

 total amount of memory used by VASP on root node   145537. kBytes
========================================================================

   base      :      30000. kBytes
   nonl-proj :      29469. kBytes
   fftplans  :       6516. kBytes
   grid      :      15878. kBytes
   one-center:         62. kBytes
   wavefun   :      63612. kBytes
 
  
  
 General timing and accounting informations for this job:
 ========================================================
  
                  Total CPU time used (sec):      989.679
                            User time (sec):      986.160
                          System time (sec):        3.519
                         Elapsed time (sec):      989.810
  
                   Maximum memory used (kb):      180652.
                   Average memory used (kb):           0.
  
                          Minor page faults:        53016
                          Major page faults:            0
                 Voluntary context switches:         1305
