 vasp.5.4.4.18Apr17-6-g9f103f2a35 (build Jan 21 2021 13:12:21) complex          
  
 executed on             LinuxIFC date 2021.11.06  15:04:59
 running on   30 total cores
 distrk:  each k-point on   30 cores,    1 groups
 distr:  one band on NCORES_PER_BAND=   1 cores,   30 groups


--------------------------------------------------------------------------------------------------------


 INCAR:
 POTCAR:    PAW_PBE Al 04Jan2001                  
 POTCAR:    PAW_PBE Nb_sv 25May2007               
 POTCAR:    PAW_PBE Ta 17Jan2003                  
 POTCAR:    PAW_PBE Ti 08Apr2002                  
 POTCAR:   PAW_PBE Zr 08Apr2002                   
 POTCAR:    PAW_PBE O 08Apr2002                   

 ----------------------------------------------------------------------------- 
|                                                                             |
|           W    W    AA    RRRRR   N    N  II  N    N   GGGG   !!!           |
|           W    W   A  A   R    R  NN   N  II  NN   N  G    G  !!!           |
|           W    W  A    A  R    R  N N  N  II  N N  N  G       !!!           |
|           W WW W  AAAAAA  RRRRR   N  N N  II  N  N N  G  GGG   !            |
|           WW  WW  A    A  R   R   N   NN  II  N   NN  G    G                |
|           W    W  A    A  R    R  N    N  II  N    N   GGGG   !!!           |
|                                                                             |
|      For optimal performance we recommend to set                            |
|        NCORE= 4 - approx SQRT( number of cores)                             |
|      NCORE specifies how many cores store one orbital (NPAR=cpu/NCORE).     |
|      This setting can  greatly improve the performance of VASP for DFT.     |
|      The default,   NCORE=1            might be grossly inefficient         |
|      on modern multi-core architectures or massively parallel machines.     |
|      Do your own testing !!!!                                               |
|      Unfortunately you need to use the default for GW and RPA calculations. |
|      (for HF NCORE is supported but not extensively tested yet)             |
|                                                                             |
 ----------------------------------------------------------------------------- 

 POTCAR:    PAW_PBE Al 04Jan2001                  
   VRHFIN =Al: s2p1                                                             
   LEXCH  = PE                                                                  
   EATOM  =    53.5387 eV,    3.9350 Ry                                         
                                                                                
   TITEL  = PAW_PBE Al 04Jan2001                                                
   LULTRA =        F    use ultrasoft PP ?                                      
   IUNSCR =        1    unscreen: 0-lin 1-nonlin 2-no                           
   RPACOR =    1.500    partial core radius                                     
   POMASS =   26.981; ZVAL   =    3.000    mass and valenz                      
   RCORE  =    1.900    outmost cutoff radius                                   
   RWIGS  =    2.650; RWIGS  =    1.402    wigner-seitz radius (au A)           
   ENMAX  =  240.300; ENMIN  =  180.225 eV                                      
   ICORE  =        2    local potential                                         
   LCOR   =        T    correct aug charges                                     
   LPAW   =        T    paw PP                                                  
   EAUG   =  291.052                                                            
   DEXC   =    0.000                                                            
   RMAX   =    1.939    core radius for proj-oper                               
   RAUG   =    1.300    factor for augmentation sphere                          
   RDEP   =    1.966    radius for radial grids                                 
   RDEPT  =    1.856    core radius for aug-charge                              
                                                                                
   Atomic configuration                                                         
    6 entries                                                                   
     n  l   j            E        occ.                                          
     1  0  0.50     -1511.1048   2.0000                                         
     2  0  0.50      -108.1629   2.0000                                         
     2  1  1.50       -69.6402   6.0000                                         
     3  0  0.50        -7.7528   2.0000                                         
     3  1  1.50        -2.7121   1.0000                                         
     3  2  2.50        -2.7212   0.0000                                         
   Description                                                                  
     l       E           TYP  RCUT    TYP  RCUT                                 
     0     -7.7528455     23  1.900                                             
     0     -3.3096929     23  1.900                                             
     1     -2.7120682     23  1.900                                             
     1     13.6058260     23  1.900                                             
     2     -2.7211652      7  1.900                                             
  local pseudopotential read in
  partial core-charges read in
  partial kinetic energy density read in
  atomic valenz-charges read in
  non local Contribution for L=           0  read in
    real space projection operators read in
  non local Contribution for L=           0  read in
    real space projection operators read in
  non local Contribution for L=           1  read in
    real space projection operators read in
  non local Contribution for L=           1  read in
    real space projection operators read in
    PAW grid and wavefunctions read in
 
   number of l-projection  operators is LMAX  =           4
   number of lm-projection operators is LMMAX =           8
 
 POTCAR:    PAW_PBE Nb_sv 25May2007               
   VRHFIN =Nb: 4p5s4d                                                           
   LEXCH  = PE                                                                  
   EATOM  =  1555.1913 eV,  114.3033 Ry                                         
                                                                                
   TITEL  = PAW_PBE Nb_sv 25May2007                                             
   LULTRA =        F    use ultrasoft PP ?                                      
   IUNSCR =        1    unscreen: 0-lin 1-nonlin 2-no                           
   RPACOR =    1.800    partial core radius                                     
   POMASS =   92.910; ZVAL   =   13.000    mass and valenz                      
   RCORE  =    2.400    outmost cutoff radius                                   
   RWIGS  =    2.400; RWIGS  =    1.270    wigner-seitz radius (au A)           
   ENMAX  =  293.235; ENMIN  =  219.927 eV                                      
   ICORE  =        3    local potential                                         
   LCOR   =        T    correct aug charges                                     
   LPAW   =        T    paw PP                                                  
   EAUG   =  455.659                                                            
   DEXC   =    0.000                                                            
   RMAX   =    2.456    core radius for proj-oper                               
   RAUG   =    1.300    factor for augmentation sphere                          
   RDEP   =    2.451    radius for radial grids                                 
   RDEPT  =    1.956    core radius for aug-charge                              
                                                                                
   Atomic configuration                                                         
   11 entries                                                                   
     n  l   j            E        occ.                                          
     1  0  0.50    -18805.2457   2.0000                                         
     2  0  0.50     -2630.2869   2.0000                                         
     2  1  1.50     -2348.4046   6.0000                                         
     3  0  0.50      -438.8757   2.0000                                         
     3  1  1.50      -346.7588   6.0000                                         
     3  2  2.50      -196.2560  10.0000                                         
     4  0  0.50       -58.3859   2.0000                                         
     5  0  0.50        -3.9816   1.0000                                         
     4  1  1.50       -34.5141   6.0000                                         
     4  2  2.50        -3.0408   4.0000                                         
     4  3  2.50        -1.3606   0.0000                                         
   Description                                                                  
     l       E           TYP  RCUT    TYP  RCUT                                 
     0    -58.3859094     23  2.200                                             
     0     -3.9816262     23  2.200                                             
     1    -34.5140738     23  2.200                                             
     1     13.6058260     23  2.200                                             
     2     -3.0408010     23  2.200                                             
     2     -0.1283038     23  2.200                                             
     3     -1.3605826     23  2.400                                             
  local pseudopotential read in
  partial core-charges read in
  partial kinetic energy density read in
  atomic valenz-charges read in
  non local Contribution for L=           0  read in
    real space projection operators read in
  non local Contribution for L=           0  read in
    real space projection operators read in
  non local Contribution for L=           1  read in
    real space projection operators read in
  non local Contribution for L=           1  read in
    real space projection operators read in
  non local Contribution for L=           2  read in
    real space projection operators read in
  non local Contribution for L=           2  read in
    real space projection operators read in
    PAW grid and wavefunctions read in
 
   number of l-projection  operators is LMAX  =           6
   number of lm-projection operators is LMMAX =          18
 
 POTCAR:    PAW_PBE Ta 17Jan2003                  
   VRHFIN =Ta:  6s5d                                                            
   LEXCH  = PE                                                                  
   EATOM  =   130.6506 eV,    9.6025 Ry                                         
                                                                                
   TITEL  = PAW_PBE Ta 17Jan2003                                                
   LULTRA =        F    use ultrasoft PP ?                                      
   IUNSCR =        1    unscreen: 0-lin 1-nonlin 2-no                           
   RPACOR =    2.330    partial core radius                                     
   POMASS =  180.948; ZVAL   =    5.000    mass and valenz                      
   RCORE  =    2.900    outmost cutoff radius                                   
   RWIGS  =    2.840; RWIGS  =    1.503    wigner-seitz radius (au A)           
   ENMAX  =  223.667; ENMIN  =  167.750 eV                                      
   RCLOC  =    2.205    cutoff for local pot                                    
   LCOR   =        T    correct aug charges                                     
   LPAW   =        T    paw PP                                                  
   EAUG   =  332.075                                                            
   DEXC   =    0.000                                                            
   RMAX   =    2.970    core radius for proj-oper                               
   RAUG   =    1.300    factor for augmentation sphere                          
   RDEP   =    3.060    radius for radial grids                                 
   RDEPT  =    2.354    core radius for aug-charge                              
                                                                                
   Atomic configuration                                                         
   16 entries                                                                   
     n  l   j            E        occ.                                          
     1  0  0.50    -67341.2807   2.0000                                         
     2  0  0.50    -11566.9376   2.0000                                         
     2  1  1.50    -10134.1182   6.0000                                         
     3  0  0.50     -2648.5620   2.0000                                         
     3  1  1.50     -2222.6012   6.0000                                         
     3  2  2.50     -1726.3120  10.0000                                         
     4  0  0.50      -538.6961   2.0000                                         
     4  1  1.50      -399.0129   6.0000                                         
     4  2  2.50      -220.3959  10.0000                                         
     4  3  3.50       -23.0374  14.0000                                         
     5  0  0.50       -71.2901   2.0000                                         
     5  1  1.50       -37.8225   6.0000                                         
     5  2  2.50        -2.6455   4.0000                                         
     6  0  0.50        -4.9623   1.0000                                         
     6  1  1.50        -1.3606   0.0000                                         
     5  3  2.50        -1.3606   0.0000                                         
   Description                                                                  
     l       E           TYP  RCUT    TYP  RCUT                                 
     2     -2.6455043     23  2.500                                             
     2     -0.6258895     23  2.500                                             
     0     -4.9622780     23  2.500                                             
     0      4.7531321     23  2.500                                             
     1     -1.3605826     23  2.900                                             
     1     27.2116520     23  2.900                                             
  local pseudopotential read in
  partial core-charges read in
  partial kinetic energy density read in
  atomic valenz-charges read in
  non local Contribution for L=           2  read in
    real space projection operators read in
  non local Contribution for L=           2  read in
    real space projection operators read in
  non local Contribution for L=           0  read in
    real space projection operators read in
  non local Contribution for L=           0  read in
    real space projection operators read in
  non local Contribution for L=           1  read in
    real space projection operators read in
  non local Contribution for L=           1  read in
    real space projection operators read in
    PAW grid and wavefunctions read in
 
   number of l-projection  operators is LMAX  =           6
   number of lm-projection operators is LMMAX =          18
 
 POTCAR:    PAW_PBE Ti 08Apr2002                  
   VRHFIN =Ti: d3 s1                                                            
   LEXCH  = PE                                                                  
   EATOM  =    94.7928 eV,    6.9671 Ry                                         
                                                                                
   TITEL  = PAW_PBE Ti 08Apr2002                                                
   LULTRA =        F    use ultrasoft PP ?                                      
   IUNSCR =        1    unscreen: 0-lin 1-nonlin 2-no                           
   RPACOR =    2.200    partial core radius                                     
   POMASS =   47.880; ZVAL   =    4.000    mass and valenz                      
   RCORE  =    2.800    outmost cutoff radius                                   
   RWIGS  =    2.500; RWIGS  =    1.323    wigner-seitz radius (au A)           
   ENMAX  =  178.330; ENMIN  =  133.747 eV                                      
   RCLOC  =    2.215    cutoff for local pot                                    
   LCOR   =        T    correct aug charges                                     
   LPAW   =        T    paw PP                                                  
   EAUG   =  328.883                                                            
   DEXC   =    0.000                                                            
   RMAX   =    2.868    core radius for proj-oper                               
   RAUG   =    1.300    factor for augmentation sphere                          
   RDEP   =    2.885    radius for radial grids                                 
   RDEPT  =    2.320    core radius for aug-charge                              
                                                                                
   Atomic configuration                                                         
    9 entries                                                                   
     n  l   j            E        occ.                                          
     1  0  0.50     -4865.3608   2.0000                                         
     2  0  0.50      -533.1367   2.0000                                         
     2  1  1.50      -440.5031   6.0000                                         
     3  0  0.50       -59.3186   2.0000                                         
     3  1  1.50       -35.7012   6.0000                                         
     3  2  2.50        -1.9157   3.0000                                         
     4  0  0.50        -3.7291   1.0000                                         
     4  1  1.50        -4.0817   0.0000                                         
     4  3  2.50        -1.3606   0.0000                                         
   Description                                                                  
     l       E           TYP  RCUT    TYP  RCUT                                 
     2     -1.9156924     23  2.800                                             
     2     -0.4062961     23  2.800                                             
     0     -3.7290832     23  2.800                                             
     0     20.4087390     23  2.800                                             
     1     -5.4423304     23  2.800                                             
  local pseudopotential read in
  partial core-charges read in
  partial kinetic energy density read in
  atomic valenz-charges read in
  non local Contribution for L=           2  read in
    real space projection operators read in
  non local Contribution for L=           2  read in
    real space projection operators read in
  non local Contribution for L=           0  read in
    real space projection operators read in
  non local Contribution for L=           0  read in
    real space projection operators read in
  non local Contribution for L=           1  read in
    real space projection operators read in
    PAW grid and wavefunctions read in
 
   number of l-projection  operators is LMAX  =           5
   number of lm-projection operators is LMMAX =          15
 
 POTCAR:   PAW_PBE Zr 08Apr2002                   
   VRHFIN =Zr: 5s4d5p                                                           
   LEXCH  = PE                                                                  
   EATOM  =    77.8472 eV,    5.7216 Ry                                         
                                                                                
   TITEL  = PAW_PBE Zr 08Apr2002                                                
   LULTRA =        F    use ultrasoft PP ?                                      
   IUNSCR =        1    unscreen: 0-lin 1-nonlin 2-no                           
   RPACOR =    2.200    partial core radius                                     
   POMASS =   91.224; ZVAL   =    4.000    mass and valenz                      
   RCORE  =    3.000    outmost cutoff radius                                   
   RWIGS  =    3.070; RWIGS  =    1.625    wigner-seitz radius (au A)           
   ENMAX  =  154.632; ENMIN  =  115.974 eV                                      
   RCLOC  =    2.213    cutoff for local pot                                    
   LCOR   =        T    correct aug charges                                     
   LPAW   =        T    paw PP                                                  
   EAUG   =  243.217                                                            
   DEXC   =    -.082                                                            
   RMAX   =    3.708    core radius for proj-oper                               
   RAUG   =    1.300    factor for augmentation sphere                          
   RDEP   =    3.146    radius for radial grids                                 
   QCUT   =   -3.371; QGAM   =    6.742    optimization parameters              
                                                                                
   Description                                                                  
     l     E      TYP  RCUT    TYP  RCUT                                        
     2   .000     23  3.000                                                     
     2   .000     23  3.000                                                     
     0   .000     23  3.000                                                     
     0  2.000     23  3.000                                                     
     1  -.400     23  3.000                                                     
     3   .000      7   .000                                                     
  local pseudopotential read in
  partial core-charges read in
  atomic valenz-charges read in
  non local Contribution for L=           2  read in
    real space projection operators read in
  non local Contribution for L=           2  read in
    real space projection operators read in
  non local Contribution for L=           0  read in
    real space projection operators read in
  non local Contribution for L=           0  read in
    real space projection operators read in
  non local Contribution for L=           1  read in
    real space projection operators read in
    PAW grid and wavefunctions read in
 
   number of l-projection  operators is LMAX  =           5
   number of lm-projection operators is LMMAX =          15
 
 POTCAR:    PAW_PBE O 08Apr2002                   
   VRHFIN =O: s2p4                                                              
   LEXCH  = PE                                                                  
   EATOM  =   432.3788 eV,   31.7789 Ry                                         
                                                                                
   TITEL  = PAW_PBE O 08Apr2002                                                 
   LULTRA =        F    use ultrasoft PP ?                                      
   IUNSCR =        1    unscreen: 0-lin 1-nonlin 2-no                           
   RPACOR =    1.200    partial core radius                                     
   POMASS =   16.000; ZVAL   =    6.000    mass and valenz                      
   RCORE  =    1.520    outmost cutoff radius                                   
   RWIGS  =    1.550; RWIGS  =    0.820    wigner-seitz radius (au A)           
   ENMAX  =  400.000; ENMIN  =  300.000 eV                                      
   ICORE  =        2    local potential                                         
   LCOR   =        T    correct aug charges                                     
   LPAW   =        T    paw PP                                                  
   EAUG   =  605.392                                                            
   DEXC   =    0.000                                                            
   RMAX   =    1.553    core radius for proj-oper                               
   RAUG   =    1.300    factor for augmentation sphere                          
   RDEP   =    1.550    radius for radial grids                                 
   RDEPT  =    1.329    core radius for aug-charge                              
                                                                                
   Atomic configuration                                                         
    4 entries                                                                   
     n  l   j            E        occ.                                          
     1  0  0.50      -514.6923   2.0000                                         
     2  0  0.50       -23.9615   2.0000                                         
     2  1  0.50        -9.0305   4.0000                                         
     3  2  1.50        -9.5241   0.0000                                         
   Description                                                                  
     l       E           TYP  RCUT    TYP  RCUT                                 
     0    -23.9615318     23  1.200                                             
     0     -9.5240782     23  1.200                                             
     1     -9.0304911     23  1.520                                             
     1      8.1634956     23  1.520                                             
     2     -9.5240782      7  1.500                                             
  local pseudopotential read in
  partial core-charges read in
  partial kinetic energy density read in
  kinetic energy density of atom read in
  atomic valenz-charges read in
  non local Contribution for L=           0  read in
    real space projection operators read in
  non local Contribution for L=           0  read in
    real space projection operators read in
  non local Contribution for L=           1  read in
    real space projection operators read in
  non local Contribution for L=           1  read in
    real space projection operators read in
    PAW grid and wavefunctions read in
 
   number of l-projection  operators is LMAX  =           4
   number of lm-projection operators is LMMAX =           8
 
 Optimization of the real space projectors (new method)

 maximal supplied QI-value         = 19.84
 optimisation between [QCUT,QGAM] = [ 12.50, 25.00] = [ 43.76,175.03] Ry 
 Optimized for a Real-space Cutoff    1.06 Angstroem

   l    n(q)    QCUT    max X(q) W(low)/X(q) W(high)/X(q)  e(spline) 
   0      8    12.501   176.870    0.16E-03    0.12E-03    0.66E-07
   0      8    12.501   105.762    0.15E-03    0.12E-03    0.64E-07
   1      7    12.501    55.370    0.36E-03    0.38E-03    0.67E-07
   1      7    12.501    20.208    0.32E-03    0.35E-03    0.64E-07
 Optimization of the real space projectors (new method)

 maximal supplied QI-value         = 15.68
 optimisation between [QCUT,QGAM] = [ 12.55, 25.10] = [ 44.09,176.36] Ry 
 Optimized for a Real-space Cutoff    1.56 Angstroem

   l    n(q)    QCUT    max X(q) W(low)/X(q) W(high)/X(q)  e(spline) 
   0     12    12.548    10.201    0.21E-04    0.36E-05    0.83E-07
   0     12    12.548     8.174    0.31E-04    0.62E-05    0.15E-06
   1     11    12.548     3.488    0.79E-05    0.23E-04    0.21E-06
   1     11    12.548     4.917    0.56E-04    0.13E-03    0.11E-05
   2     11    12.548   153.744    0.25E-03    0.10E-03    0.15E-05
   2     11    12.548   126.342    0.25E-03    0.10E-03    0.15E-05
 Optimization of the real space projectors (new method)

 maximal supplied QI-value         = 12.85
 optimisation between [QCUT,QGAM] = [ 12.46, 25.06] = [ 43.51,175.83] Ry 
 Optimized for a Real-space Cutoff    1.56 Angstroem

   l    n(q)    QCUT    max X(q) W(low)/X(q) W(high)/X(q)  e(spline) 
   2     11    12.465    62.315    0.36E-03    0.20E-03    0.15E-05
   2     11    12.465    52.185    0.36E-03    0.20E-03    0.15E-05
   0     12    12.465   103.837    0.22E-04    0.37E-05    0.56E-06
   0     12    12.465    59.728    0.20E-04    0.34E-05    0.51E-06
   1     11    12.465    13.958    0.44E-03    0.81E-03    0.81E-05
   1     11    12.465     8.441    0.31E-03    0.56E-03    0.56E-05
 Optimization of the real space projectors (new method)

 maximal supplied QI-value         = 13.42
 optimisation between [QCUT,QGAM] = [ 12.48, 25.09] = [ 43.60,176.28] Ry 
 Optimized for a Real-space Cutoff    1.56 Angstroem

   l    n(q)    QCUT    max X(q) W(low)/X(q) W(high)/X(q)  e(spline) 
   2     11    12.478    49.363    0.45E-03    0.34E-03    0.89E-06
   2     11    12.478    47.669    0.44E-03    0.33E-03    0.87E-06
   0     12    12.478    26.374    0.17E-03    0.37E-04    0.21E-05
   0     12    12.478    11.549    0.13E-03    0.31E-04    0.17E-05
   1     11    12.478     9.492    0.91E-05    0.64E-04    0.34E-06
 Optimization of the real space projectors (new method)

 maximal supplied QI-value         = 12.47
 optimisation between [QCUT,QGAM] = [ 12.47, 25.07] = [ 43.56,175.99] Ry 
 Optimized for a Real-space Cutoff    1.70 Angstroem

   l    n(q)    QCUT    max X(q) W(low)/X(q) W(high)/X(q)  e(spline) 
   2     12    12.472     5.149    0.23E-04    0.12E-05    0.19E-06
   2     12    12.472    48.417    0.26E-03    0.15E-03    0.35E-05
   0     13    12.472    27.113    0.15E-04    0.46E-05    0.14E-06
   0     13    12.472    33.957    0.20E-04    0.33E-04    0.12E-05
   1     12    12.472    13.771    0.11E-04    0.23E-05    0.34E-06
 WARNING: PSMAXN for non-local potential too small
          PSMAXN should be >   12.5490833729506       NTYP=           5
 Optimization of the real space projectors (new method)

 maximal supplied QI-value         = 24.76
 optimisation between [QCUT,QGAM] = [ 12.38, 25.00] = [ 42.90,175.06] Ry 
 Optimized for a Real-space Cutoff    1.13 Angstroem

   l    n(q)    QCUT    max X(q) W(low)/X(q) W(high)/X(q)  e(spline) 
   0      8    12.378    20.381    0.16E-03    0.54E-05    0.27E-06
   0      8    12.378    15.268    0.17E-03    0.61E-05    0.29E-06
   1      8    12.378     5.964    0.38E-03    0.23E-03    0.28E-06
   1      8    12.378     5.382    0.33E-03    0.20E-03    0.25E-06
  PAW_PBE Al 04Jan2001                  :
 energy of atom  1       EATOM=  -53.5387
 kinetic energy error for atom=    0.0002 (will be added to EATOM!!)
  PAW_PBE Nb_sv 25May2007               :
 energy of atom  2       EATOM=-1555.1913
 kinetic energy error for atom=    0.0037 (will be added to EATOM!!)
  PAW_PBE Ta 17Jan2003                  :
 energy of atom  3       EATOM= -130.6506
 kinetic energy error for atom=    0.0004 (will be added to EATOM!!)
  PAW_PBE Ti 08Apr2002                  :
 energy of atom  4       EATOM=  -94.7928
 kinetic energy error for atom=    0.0001 (will be added to EATOM!!)
 PAW_PBE Zr 08Apr2002                   :
 energy of atom  5       EATOM=  -77.8472
 kinetic energy error for atom=    0.0001 (will be added to EATOM!!)
  PAW_PBE O 08Apr2002                   :
 energy of atom  6       EATOM= -432.3788
 kinetic energy error for atom=    0.0168 (will be added to EATOM!!)
 
 
 POSCAR: Al Nb Ta Ti Zr                          
  positions in direct lattice
  velocities in cartesian coordinates
 exchange correlation table for  LEXCH =        8
   RHO(1)=    0.500       N(1)  =     2000
   RHO(2)=  100.500       N(2)  =     4000
 


--------------------------------------------------------------------------------------------------------


 ion  position               nearest neighbor table
   1  0.623  0.867  0.376-  34 2.83  25 2.88  24 2.88   9 2.88  13 2.90   4 2.91  61 2.93  15 3.16
                            41 3.35  17 3.40
   2  0.618  0.396  0.547-  31 2.78  33 2.82  23 2.84  14 2.92  10 2.93   7 2.94  26 2.97  62 3.01
                             3 3.06  16 3.16  17 3.16  42 3.45
   3  0.589  0.625  0.623-  79 1.83  75 1.84  78 1.90  32 2.64  33 2.72  26 2.82   8 2.83  45 2.93
                            23 2.98   2 3.06  14 3.08
   4  0.618  0.084  0.450-  31 2.80  24 2.86  34 2.87  13 2.88   1 2.91  25 2.92   7 2.92  62 2.97
                            10 3.06  28 3.16  46 3.24
   5  0.981  0.635  0.549-  27 2.78  30 2.81  56 2.94  42 2.96  63 2.97  47 3.00  52 3.05  59 3.17
                            57 3.27  54 3.38  58 3.53
   6  0.980  0.121  0.378-  29 2.80  28 2.80  53 2.91  41 2.96  51 3.05  55 3.05  60 3.08  57 3.37

   7  0.729  0.343  0.458-  28 2.77  29 2.83  31 2.85  17 2.89  11 2.90   4 2.92   2 2.94  62 3.05
                            63 3.07  42 3.13
   8  0.725  0.846  0.632-  78 2.02  71 2.04  77 2.07  79 2.17  27 2.71  32 2.79   3 2.83  30 2.85
                            12 2.91  18 2.92  64 3.18
   9  0.517  0.608  0.367-  35 2.84  15 2.85  17 2.87   1 2.88  11 2.89  61 2.95  43 3.10
  10  0.511  0.132  0.545-  16 2.83  18 2.89  36 2.90   2 2.93  12 2.94  46 3.04  62 3.04   4 3.06
                            31 3.06  44 3.17
  11  0.618  0.343  0.369-  24 2.75  34 2.83  31 2.87   9 2.89   7 2.90  61 2.96  43 3.27
  12  0.621  0.869  0.540-  13 2.75  23 2.80  32 2.80  33 2.85  25 2.88  62 2.91   8 2.91  10 2.94
                            44 3.43
  13  0.742  0.843  0.462-  12 2.75  17 2.87   4 2.88   1 2.90  28 2.94  63 2.98  41 3.05  30 3.07
                            23 3.09  57 3.27  62 3.47
  14  0.740  0.390  0.633-  74 1.99  76 2.01  79 2.23   2 2.92  42 2.98  18 3.02  27 3.03  64 3.07
                             3 3.08  58 3.13
  15  0.394  0.847  0.369-  22 2.68  19 2.76  25 2.83  34 2.84   9 2.85  39 2.98   1 3.16  46 3.43

  16  0.390  0.370  0.547-  21 2.63  20 2.81  10 2.83  26 2.88  40 2.90  33 2.92  37 2.94  31 3.00
                             2 3.16
  17  0.619  0.602  0.458-  33 2.76  25 2.81  31 2.85   9 2.87  13 2.87   7 2.89  61 2.95  23 3.01
                            35 3.03   2 3.16   1 3.40  63 3.44
  18  0.629  0.118  0.631-  72 2.04  71 2.04  74 2.07  32 2.67  10 2.89  62 2.91   8 2.92  26 2.97
                            14 3.02  64 3.16  36 3.16
  19  0.279  0.834  0.451-  15 2.76  35 2.94  46 2.96  44 2.97  39 2.97  25 2.99  60 3.07  51 3.08
                            47 3.12  56 3.28  21 3.33
  20  0.272  0.347  0.629-  69 2.00  70 2.04  67 2.17  16 2.81  36 2.95  48 3.03  52 3.06  40 3.07
                            59 3.09  26 3.12  45 3.19
  21  0.271  0.584  0.534-  80 2.06  16 2.63  37 2.86  47 2.89  35 2.90  52 2.92  44 3.06  45 3.07
                            33 3.14  56 3.17  59 3.20  19 3.33
  22  0.283  0.077  0.361-  15 2.68  46 2.97  43 2.97  34 2.99  51 3.02  55 3.10  60 3.10
  23  0.742  0.634  0.547-  79 2.15  12 2.80  30 2.82   2 2.84  27 2.91   3 2.98  17 3.01  63 3.04
                            42 3.05  13 3.09
  24  0.740  0.115  0.366-  29 2.73  11 2.75  28 2.85   4 2.86   1 2.88  41 3.00
  25  0.496  0.836  0.458-  35 2.78  17 2.81  15 2.83   1 2.88  12 2.88  33 2.91   4 2.92  19 2.99
                            46 2.99  44 3.00
  26  0.498  0.364  0.636-  70 1.90  75 1.92  74 1.97   3 2.82  36 2.87  16 2.88  18 2.97   2 2.97
                            20 3.12  45 3.15
  27  0.866  0.650  0.632-  79 2.02  76 2.02  68 2.04  77 2.12   8 2.71  58 2.73   5 2.78  23 2.91
                            54 2.97  30 3.00  14 3.03
  28  0.847  0.110  0.455-   7 2.77   6 2.80  62 2.85  24 2.85  57 2.90  13 2.94  53 2.98  50 3.04
                            29 3.15   4 3.16  41 3.36
  29  0.852  0.349  0.376-  24 2.73   6 2.80   7 2.83  53 2.94  61 2.98  49 3.07  28 3.15  63 3.25

  30  0.861  0.873  0.555-  77 2.20   5 2.81  23 2.82   8 2.85  50 2.95  57 2.97  27 3.00  62 3.06
                            13 3.07  64 3.24  54 3.29
  31  0.522  0.339  0.461-   2 2.78   4 2.80  17 2.85   7 2.85  35 2.86  11 2.87  46 2.95  16 3.00
                            10 3.06  43 3.11
  32  0.524  0.884  0.629-  78 1.88  72 2.00  65 2.01   3 2.64  18 2.67  36 2.68   8 2.79  12 2.80
                            45 3.05  44 3.08
  33  0.497  0.631  0.536-   3 2.72  35 2.73  17 2.76   2 2.82  44 2.84  12 2.85  25 2.91  16 2.92
                            45 3.08  21 3.14
  34  0.499  0.102  0.365-  11 2.83   1 2.83  15 2.84   4 2.87  43 2.91  46 2.98  22 2.99
  35  0.400  0.580  0.451-  33 2.73  25 2.78   9 2.84  31 2.86  37 2.88  21 2.90  39 2.93  19 2.94
                            17 3.03  43 3.08
  36  0.400  0.099  0.634-  72 1.94  70 2.01  67 2.05  65 2.13  32 2.68  26 2.87  10 2.90  38 2.94
                            20 2.95  40 3.13  18 3.16  44 3.29
  37  0.255  0.366  0.464-  21 2.86  35 2.88  16 2.94  47 3.02  60 3.04  43 3.05  55 3.08  46 3.08
                            52 3.09  40 3.18  39 3.39
  38  0.231  0.911  0.634-  73 1.89  67 2.03  65 2.05  80 2.15  56 2.86  54 2.88  36 2.94  48 2.96
                            59 3.12  44 3.13  40 3.25  45 3.26
  39  0.252  0.614  0.376-  35 2.93  19 2.97  15 2.98  47 3.07  43 3.07  51 3.07  55 3.08  37 3.39
                            49 3.53
  40  0.257  0.134  0.546-  67 2.40  16 2.90  44 3.02  20 3.07  46 3.07  52 3.07  60 3.07  36 3.13
                            37 3.18  48 3.20  56 3.21  38 3.25  50 3.64
  41  0.865  0.859  0.370-   6 2.96  24 3.00  61 3.05  13 3.05  57 3.06  49 3.12   1 3.35  28 3.36
                            51 3.49  63 3.53
  42  0.868  0.372  0.547-   5 2.96  14 2.98  62 3.00  23 3.05  50 3.06   7 3.13  58 3.16  53 3.19
                            63 3.23  52 3.42   2 3.45  64 3.47
  43  0.381  0.352  0.373-  34 2.91  22 2.97  37 3.05  39 3.07  35 3.08   9 3.10  31 3.11  55 3.26
                            11 3.27  46 3.29
  44  0.373  0.866  0.547-  65 2.36  80 2.37  33 2.84  19 2.97  25 3.00  40 3.02  21 3.06  32 3.08
                            38 3.13  45 3.13  10 3.17  56 3.29  36 3.29  46 3.39  12 3.43
  45  0.377  0.644  0.630-  69 2.09  75 2.10  65 2.25  80 2.26   3 2.93  32 3.05  21 3.07  33 3.08
                            44 3.13  26 3.15  20 3.19  59 3.24  38 3.26
  46  0.384  0.104  0.456-  31 2.95  19 2.96  22 2.97  34 2.98  25 2.99  10 3.04  40 3.07  37 3.08
                             4 3.24  60 3.27  43 3.29  44 3.39  15 3.43
  47  0.117  0.611  0.465-  21 2.89   5 3.00  37 3.02  39 3.07  19 3.12  53 3.14  49 3.15  57 3.17
                            56 3.19  52 3.25  63 3.42  51 3.52  55 3.80
  48  0.097  0.154  0.630-  66 2.10  67 2.16  38 2.96  50 2.98  54 3.02  20 3.03  58 3.09  52 3.10
                            40 3.20  64 3.32  56 3.79
  49  0.996  0.593  0.368-  63 3.05  29 3.07  41 3.12  47 3.15  51 3.16  55 3.23  53 3.44  39 3.53
                            61 3.65  57 3.82
  50  0.994  0.109  0.537-  30 2.95  48 2.98  57 2.99  28 3.04  42 3.06  53 3.14  52 3.14  56 3.17
                            60 3.19  64 3.33  62 3.61  40 3.64  54 3.79
  51  0.119  0.872  0.375-  60 3.00  22 3.02   6 3.05  39 3.07  19 3.08  57 3.16  49 3.16  41 3.49
                            47 3.52
  52  0.116  0.383  0.551-  21 2.92   5 3.05  20 3.06  40 3.07  37 3.09  48 3.10  59 3.11  50 3.14
                            53 3.19  47 3.25  42 3.42  58 3.43
  53  1.000  0.331  0.453-   6 2.91  29 2.94  28 2.98  60 3.06  63 3.08  55 3.09  50 3.14  47 3.14
                            42 3.19  52 3.19  49 3.44
  54  0.026  0.857  0.641-  77 2.11  73 2.15  68 2.25  59 2.87  38 2.88  27 2.97  48 3.02  56 3.06
                            30 3.29   5 3.38  64 3.40  50 3.79
  55  0.145  0.332  0.368-   6 3.05  37 3.08  39 3.08  53 3.09  22 3.10  49 3.23  60 3.24  43 3.26
                            47 3.80
  56  0.134  0.848  0.545-  80 2.27  38 2.86   5 2.94  54 3.06  57 3.09  21 3.17  50 3.17  47 3.19
                            40 3.21  59 3.28  19 3.28  44 3.29  60 3.50  48 3.79
  57  0.979  0.876  0.465-  28 2.90  30 2.97  50 2.99  41 3.06  56 3.09  63 3.11  60 3.13  51 3.16
                            47 3.17   5 3.27  13 3.27   6 3.37  49 3.82
  58  0.965  0.408  0.650-  66 2.07  76 2.08  68 2.22  27 2.73  48 3.09  14 3.13  42 3.16  59 3.16
                            64 3.18  52 3.43   5 3.53
  59  0.143  0.611  0.630-  69 2.14  68 2.15  73 2.20  80 2.26  54 2.87  20 3.09  52 3.11  38 3.12
                            58 3.16   5 3.17  21 3.20  45 3.24  56 3.28
  60  0.147  0.092  0.451-  51 3.00  37 3.04  53 3.06  19 3.07  40 3.07   6 3.08  22 3.10  57 3.13
                            50 3.19  55 3.24  46 3.27  56 3.50
  61  0.731  0.606  0.367-   1 2.93  17 2.95   9 2.95  11 2.96  29 2.98  41 3.05  63 3.17  49 3.65

  62  0.732  0.128  0.540-  28 2.85  18 2.91  12 2.91   4 2.97  42 3.00   2 3.01  10 3.04   7 3.05
                            30 3.06  64 3.18  13 3.47  50 3.61
  63  0.869  0.592  0.458-   5 2.97  13 2.98  23 3.04  49 3.05   7 3.07  53 3.08  57 3.11  61 3.17
                            42 3.23  29 3.25  47 3.42  17 3.44  41 3.53
  64  0.858  0.117  0.636-  71 2.12  66 2.14  77 2.36  14 3.07  18 3.16  58 3.18   8 3.18  62 3.18
                            30 3.24  48 3.32  50 3.33  54 3.40  42 3.47
  65  0.378  0.878  0.632-  32 2.01  38 2.05  36 2.13  45 2.25  44 2.36
  66  0.979  0.205  0.674-  58 2.07  48 2.10  64 2.14
  67  0.252  0.122  0.633-  38 2.03  36 2.05  48 2.16  20 2.17  40 2.40
  68  0.001  0.632  0.662-  27 2.04  59 2.15  58 2.22  54 2.25
  69  0.269  0.528  0.665-  20 2.00  45 2.09  59 2.14
  70  0.389  0.283  0.668-  26 1.90  36 2.01  20 2.04
  71  0.736  0.026  0.671-   8 2.04  18 2.04  64 2.12
  72  0.513  0.053  0.672-  36 1.94  32 2.00  18 2.04
  73  0.159  0.796  0.676-  38 1.89  54 2.15  59 2.20
  74  0.623  0.311  0.665-  26 1.97  14 1.99  18 2.07
  75  0.497  0.547  0.663-   3 1.84  26 1.92  45 2.10
  76  0.835  0.489  0.676-  14 2.01  27 2.02  58 2.08
  77  0.874  0.872  0.634-   8 2.07  54 2.11  27 2.12  30 2.20  64 2.36
  78  0.607  0.774  0.668-  32 1.88   3 1.90   8 2.02
  79  0.722  0.620  0.624-   3 1.83  27 2.02  23 2.15   8 2.17  14 2.23
  80  0.252  0.734  0.587-  21 2.06  38 2.15  59 2.26  45 2.26  56 2.27  44 2.37
 
  LATTYP: Found a simple orthorhombic cell.
 ALAT       =     9.5644817352
 B/A-ratio  =     1.4398428730
 C/A-ratio  =     2.8922184390
  
  Lattice vectors:
  
 A1 = (   0.0000000000,  -9.5644817352,   0.0000000000)
 A2 = ( -13.7713508606,   0.0000000000,   0.0000000000)
 A3 = (   0.0000000000,   0.0000000000, -27.6625704340)


Analysis of symmetry for initial positions (statically):
=====================================================================
 Subroutine PRICEL returns:
 Original cell was already a primitive cell.
 

 Routine SETGRP: Setting up the symmetry group for a 
 simple orthorhombic supercell.


 Subroutine GETGRP returns: Found  1 space group operations
 (whereof  1 operations were pure point group operations)
 out of a pool of  8 trial point group operations.


The static configuration has the point symmetry C_1 .


Analysis of symmetry for dynamics (positions and initial velocities):
=====================================================================
 Subroutine PRICEL returns:
 Original cell was already a primitive cell.
 

 Routine SETGRP: Setting up the symmetry group for a 
 simple orthorhombic supercell.


 Subroutine GETGRP returns: Found  1 space group operations
 (whereof  1 operations were pure point group operations)
 out of a pool of  8 trial point group operations.


The dynamic configuration has the point symmetry C_1 .


Analysis of constrained symmetry for selective dynamics:
=====================================================================
 Subroutine PRICEL returns:
 Original cell was already a primitive cell.
 

 Routine SETGRP: Setting up the symmetry group for a 
 simple orthorhombic supercell.


 Subroutine GETGRP returns: Found  1 space group operations
 (whereof  1 operations were pure point group operations)
 out of a pool of  8 trial point group operations.


The constrained configuration has the point symmetry C_1 .


 Subroutine INISYM returns: Found  1 space group operations
 (whereof  1 operations are pure point group operations),
 and found     1 'primitive' translations

 
 
 KPOINTS: k-points                                

Automatic generation of k-mesh.
Space group operators:
 irot       det(A)        alpha          n_x          n_y          n_z        tau_x        tau_y        tau_z
    1     1.000000     0.000001     1.000000     0.000000     0.000000     0.000000     0.000000     0.000000
 
 Subroutine IBZKPT returns following result:
 ===========================================
 
 Found      5 irreducible k-points:
 
 Following reciprocal coordinates:
            Coordinates               Weight
  0.000000  0.000000  0.000000      1.000000
  0.333333  0.000000  0.000000      2.000000
  0.000000  0.333333  0.000000      2.000000
  0.333333  0.333333  0.000000      2.000000
 -0.333333  0.333333  0.000000      2.000000
 
 Following cartesian coordinates:
            Coordinates               Weight
  0.000000  0.000000  0.000000      1.000000
  0.024205  0.000000  0.000000      2.000000
  0.000000  0.034851  0.000000      2.000000
  0.024205  0.034851  0.000000      2.000000
 -0.024205  0.034851  0.000000      2.000000
 
 
 Subroutine IBZKPT_HF returns following result:
 ==============================================
 
 Found      9 k-points in 1st BZ
 the following      9 k-points will be used (e.g. in the exchange kernel)
 Following reciprocal coordinates:   # in IRBZ
  0.000000  0.000000  0.000000    0.11111111   1 t-inv F
  0.333333  0.000000  0.000000    0.11111111   2 t-inv F
  0.000000  0.333333  0.000000    0.11111111   3 t-inv F
  0.333333  0.333333  0.000000    0.11111111   4 t-inv F
 -0.333333  0.333333  0.000000    0.11111111   5 t-inv F
 -0.333333  0.000000  0.000000    0.11111111   2 t-inv T
  0.000000 -0.333333  0.000000    0.11111111   3 t-inv T
 -0.333333 -0.333333  0.000000    0.11111111   4 t-inv T
  0.333333 -0.333333  0.000000    0.11111111   5 t-inv T


--------------------------------------------------------------------------------------------------------




 Dimension of arrays:
   k-points           NKPTS =      5   k-points in BZ     NKDIM =      5   number of bands    NBANDS=    270
   number of dos      NEDOS =    301   number of ions     NIONS =     80
   non local maximal  LDIM  =      6   non local SUM 2l+1 LMDIM =     18
   total plane-waves  NPLWV = 846720
   max r-space proj   IRMAX =   4874   max aug-charges    IRDMAX=  25433
   dimension x,y,z NGX =    84 NGY =   60 NGZ =  168
   dimension x,y,z NGXF=   168 NGYF=  120 NGZF=  336
   support grid    NGXF=   168 NGYF=  120 NGZF=  336
   ions per type =               6  10   4  18  26  16
   NGX,Y,Z   is equivalent  to a cutoff of  10.14, 10.43, 10.10 a.u.
   NGXF,Y,Z  is equivalent  to a cutoff of  20.28, 20.86, 20.19 a.u.

 SYSTEM =  (110) surface DM                        
 POSCAR =  Al Nb Ta Ti Zr                          

 Startparameter for this run:
   NWRITE =      2    write-flag & timer
   PREC   = normal    normal or accurate (medium, high low for compatibility)
   ISTART =      0    job   : 0-new  1-cont  2-samecut
   ICHARG =      2    charge: 1-file 2-atom 10-const
   ISPIN  =      1    spin polarized calculation?
   LNONCOLLINEAR =      F non collinear calculations
   LSORBIT =      F    spin-orbit coupling
   INIWAV =      1    electr: 0-lowe 1-rand  2-diag
   LASPH  =      F    aspherical Exc in radial PAW
   METAGGA=      F    non-selfconsistent MetaGGA calc.

 Electronic Relaxation 1
   ENCUT  =  600.0 eV  44.10 Ry    6.64 a.u.  27.50 19.10 55.25*2*pi/ulx,y,z
   ENINI  =  600.0     initial cutoff
   ENAUG  =  605.4 eV  augmentation charge cutoff
   NELM   =     60;   NELMIN=  2; NELMDL= -5     # of ELM steps 
   EDIFF  = 0.1E-05   stopping-criterion for ELM
   LREAL  =      T    real-space projection
   NLSPLINE    = F    spline interpolate recip. space projectors
   LCOMPAT=      F    compatible to vasp.4.4
   GGA_COMPAT  = T    GGA compatible to vasp.4.4-vasp.4.6
   LMAXPAW     = -100 max onsite density
   LMAXMIX     =    2 max onsite mixed and CHGCAR
   VOSKOWN=      0    Vosko Wilk Nusair interpolation
   ROPT   =   -0.00050  -0.00050  -0.00050  -0.00050
   ROPT   =   -0.00050  -0.00050
 Ionic relaxation
   EDIFFG = 0.1E-04   stopping-criterion for IOM
   NSW    =    997    number of steps for IOM
   NBLOCK =      1;   KBLOCK =    997    inner block; outer block 
   IBRION =      5    ionic relax: 0-MD 1-quasi-New 2-CG
   NFREE  =      2    steps in history (QN), initial steepest desc. (CG)
   ISIF   =      2    stress and relaxation
   IWAVPR =     11    prediction:  0-non 1-charg 2-wave 3-comb
   ISYM   =      2    0-nonsym 1-usesym 2-fastsym
   LCORR  =      T    Harris-Foulkes like correction to forces

   POTIM  = 0.0150    time-step for ionic-motion
   TEIN   =    0.0    initial temperature
   TEBEG  =    0.0;   TEEND  =   0.0 temperature during run
   SMASS  =  -3.00    Nose mass-parameter (am)
   estimated Nose-frequenzy (Omega)   =  0.10E-29 period in steps =****** mass=  -0.433E-26a.u.
   SCALEE = 1.0000    scale energy and forces
   NPACO  =    256;   APACO  = 16.0  distance and # of slots for P.C.
   PSTRESS=    0.0 pullay stress

  Mass of Ions in am
   POMASS =  26.98 92.91180.95 47.88 91.22 16.00
  Ionic Valenz
   ZVAL   =   3.00 13.00  5.00  4.00  4.00  6.00
  Atomic Wigner-Seitz radii
   RWIGS  =  -1.00 -1.00 -1.00 -1.00 -1.00 -1.00
  virtual crystal weights 
   VCA    =   1.00  1.00  1.00  1.00  1.00  1.00
   NELECT =     440.0000    total number of electrons
   NUPDOWN=      -1.0000    fix difference up-down

 DOS related values:
   EMIN   =  10.00;   EMAX   =-10.00  energy-range for DOS
   EFERMI =   0.00
   ISMEAR =     2;   SIGMA  =   0.10  broadening in eV -4-tet -1-fermi 0-gaus

 Electronic relaxation 2 (details)
   IALGO  =     38    algorithm
   LDIAG  =      T    sub-space diagonalisation (order eigenvalues)
   LSUBROT=      F    optimize rotation matrix (better conditioning)
   TURBO    =      0    0=normal 1=particle mesh
   IRESTART =      0    0=no restart 2=restart with 2 vectors
   NREBOOT  =      0    no. of reboots
   NMIN     =      0    reboot dimension
   EREF     =   0.00    reference energy to select bands
   IMIX   =      4    mixing-type and parameters
     AMIX     =   0.40;   BMIX     =  1.00
     AMIX_MAG =   1.60;   BMIX_MAG =  1.00
     AMIN     =   0.10
     WC   =   100.;   INIMIX=   1;  MIXPRE=   1;  MAXMIX=  60

 Intra band minimization:
   WEIMIN = 0.0010     energy-eigenvalue tresh-hold
   EBREAK =  0.93E-09  absolut break condition
   DEPER  =   0.30     relativ break condition  

   TIME   =   0.40     timestep for ELM

  volume/ion in A,a.u.               =      45.54       307.35
  Fermi-wavevector in a.u.,A,eV,Ry     =   0.809187  1.529142  8.908871  0.654784
  Thomas-Fermi vector in A             =   1.918131
 
 Write flags
   LWAVE        =      F    write WAVECAR
   LDOWNSAMPLE  =      F    k-point downsampling of WAVECAR
   LCHARG       =      F    write CHGCAR
   LVTOT        =      F    write LOCPOT, total local potential
   LVHAR        =      F    write LOCPOT, Hartree potential only
   LELF         =      F    write electronic localiz. function (ELF)
   LORBIT       =      0    0 simple, 1 ext, 2 COOP (PROOUT), +10 PAW based schemes


 Dipole corrections
   LMONO  =      F    monopole corrections only (constant potential shift)
   LDIPOL =      F    correct potential (dipole corrections)
   IDIPOL =      0    1-x, 2-y, 3-z, 4-all directions 
   EPSILON=  1.0000000 bulk dielectric constant

 Exchange correlation treatment:
   GGA     =    --    GGA type
   LEXCH   =     8    internal setting for exchange type
   VOSKOWN=      0    Vosko Wilk Nusair interpolation
   LHFCALC =     F    Hartree Fock is set to
   LHFONE  =     F    Hartree Fock one center treatment
   AEXX    =    0.0000 exact exchange contribution

 Linear response parameters
   LEPSILON=     F    determine dielectric tensor
   LRPA    =     F    only Hartree local field effects (RPA)
   LNABLA  =     F    use nabla operator in PAW spheres
   LVEL    =     F    velocity operator in full k-point grid
   LINTERFAST=   F  fast interpolation
   KINTER  =     0    interpolate to denser k-point grid
   CSHIFT  =0.1000    complex shift for real part using Kramers Kronig
   OMEGAMAX=  -1.0    maximum frequency
   DEG_THRESHOLD= 0.2000000E-02 threshold for treating states as degnerate
   RTIME   =   -0.100 relaxation time in fs
  (WPLASMAI=    0.000 imaginary part of plasma frequency in eV, 0.658/RTIME)
   DFIELD  = 0.0000000 0.0000000 0.0000000 field for delta impulse in time
 
 Orbital magnetization related:
   ORBITALMAG=     F  switch on orbital magnetization
   LCHIMAG   =     F  perturbation theory with respect to B field
   DQ        =  0.001000  dq finite difference perturbation B field
   LLRAUG    =     F  two centre corrections for induced B field



--------------------------------------------------------------------------------------------------------


 finite differences
   using selective dynamics as specified on POSCAR
 charge density and potential will be updated during run
 non-spin polarized calculation
 Variant of blocked Davidson
 Davidson routine will perform the subspace rotation
 perform sub-space diagonalisation
    after iterative eigenvector-optimisation
 modified Broyden-mixing scheme, WC =      100.0
 initial mixing is a Kerker type mixing with AMIX =  0.4000 and BMIX =      1.0000
 Hartree-type preconditioning will be used
 using additional bands           50
 real space projection scheme for non local part
 use partial core corrections
 calculate Harris-corrections to forces 
   (improved forces if not selfconsistent)
 use gradient corrections 
 use of overlap-Matrix (Vanderbilt PP)
 Methfessel and Paxton  Order N= 2 SIGMA  =   0.10


--------------------------------------------------------------------------------------------------------


  energy-cutoff  :      600.00
  volume of cell :     3643.60
      direct lattice vectors                 reciprocal lattice vectors
    13.771350861  0.000000000  0.000000000     0.072614518  0.000000000  0.000000000
     0.000000000  9.564481735  0.000000000     0.000000000  0.104553496  0.000000000
     0.000000000  0.000000000 27.662570434     0.000000000  0.000000000  0.036149931

  length of vectors
    13.771350861  9.564481735 27.662570434     0.072614518  0.104553496  0.036149931


 
 k-points in units of 2pi/SCALE and weight: k-points                                
   0.00000000  0.00000000  0.00000000       0.111
   0.02420484  0.00000000  0.00000000       0.222
   0.00000000  0.03485117  0.00000000       0.222
   0.02420484  0.03485117  0.00000000       0.222
  -0.02420484  0.03485117  0.00000000       0.222
 
 k-points in reciprocal lattice and weights: k-points                                
   0.00000000  0.00000000  0.00000000       0.111
   0.33333333  0.00000000  0.00000000       0.222
   0.00000000  0.33333333  0.00000000       0.222
   0.33333333  0.33333333  0.00000000       0.222
  -0.33333333  0.33333333  0.00000000       0.222
 
 position of ions in fractional coordinates (direct lattice) 
   0.62276447  0.86746430  0.37590333
   0.61802978  0.39617622  0.54707090
   0.58902524  0.62494735  0.62293660
   0.61839700  0.08363760  0.44965952
   0.98063943  0.63531904  0.54910497
   0.97963780  0.12056648  0.37767599
   0.72857308  0.34338307  0.45816820
   0.72459806  0.84603763  0.63204232
   0.51739597  0.60805875  0.36719826
   0.51125177  0.13158811  0.54518897
   0.61811078  0.34297293  0.36889183
   0.62147812  0.86860837  0.54047604
   0.74231148  0.84345710  0.46199300
   0.74036696  0.38980234  0.63346026
   0.39405298  0.84738672  0.36896032
   0.38957114  0.37009726  0.54667174
   0.61928761  0.60162497  0.45752798
   0.62896016  0.11817539  0.63146675
   0.27944195  0.83362269  0.45088327
   0.27188219  0.34667063  0.62910220
   0.27140776  0.58376316  0.53446392
   0.28324246  0.07725573  0.36149931
   0.74198961  0.63383884  0.54695907
   0.74002355  0.11549973  0.36646499
   0.49591756  0.83582580  0.45790018
   0.49779716  0.36376648  0.63568137
   0.86626201  0.64993093  0.63170134
   0.84724605  0.11017048  0.45460239
   0.85243583  0.34907103  0.37639265
   0.86140044  0.87256999  0.55515213
   0.52175105  0.33942658  0.46105252
   0.52371893  0.88357467  0.62908210
   0.49708781  0.63123163  0.53577870
   0.49943882  0.10200214  0.36464270
   0.40016663  0.58028412  0.45130253
   0.39985664  0.09929525  0.63354368
   0.25505811  0.36595738  0.46399110
   0.23085446  0.91116274  0.63385321
   0.25182599  0.61397660  0.37627308
   0.25687485  0.13424730  0.54628870
   0.86539888  0.85904646  0.37036829
   0.86810538  0.37168337  0.54689461
   0.38059813  0.35186696  0.37331264
   0.37287295  0.86623930  0.54688309
   0.37729904  0.64369416  0.62984653
   0.38408008  0.10357511  0.45579618
   0.11657381  0.61110574  0.46457054
   0.09728233  0.15398879  0.62996129
   0.99629861  0.59295863  0.36811234
   0.99370633  0.10926713  0.53671296
   0.11869311  0.87196302  0.37467704
   0.11596923  0.38272238  0.55133728
   0.99977952  0.33051389  0.45306987
   0.02581512  0.85716580  0.64143660
   0.14482272  0.33176249  0.36788561
   0.13439862  0.84815737  0.54499308
   0.97888047  0.87608504  0.46520830
   0.96520448  0.40830707  0.64958525
   0.14285306  0.61050463  0.63019213
   0.14721048  0.09173214  0.45072276
   0.73135245  0.60578495  0.36679988
   0.73191554  0.12819390  0.53976339
   0.86923259  0.59196168  0.45825814
   0.85787202  0.11697148  0.63620107
   0.37767920  0.87848934  0.63198685
   0.97887887  0.20503869  0.67413316
   0.25215215  0.12150867  0.63306216
   0.00082149  0.63198667  0.66183543
   0.26930072  0.52832281  0.66503047
   0.38948648  0.28308092  0.66818820
   0.73643564  0.02587669  0.67124692
   0.51346625  0.05269108  0.67159542
   0.15873056  0.79635367  0.67643008
   0.62264273  0.31145655  0.66538545
   0.49718616  0.54738217  0.66329895
   0.83542845  0.48919070  0.67647023
   0.87377384  0.87155672  0.63426659
   0.60673208  0.77358287  0.66762530
   0.72207484  0.62023928  0.62394908
   0.25215502  0.73400652  0.58704326
 
 position of ions in cartesian coordinates  (Angst):
   8.57630799  8.29684649 10.39845223
   8.51110489  3.78922017 15.13338729
   8.11167319  5.97729748 17.23202771
   8.51616202  0.79995025 12.43873821
  13.50472962  6.07649738 15.18965497
  13.49093588  1.15315590 10.44748880
  10.03343557  3.28428114 12.67411000
   9.97869413  8.09191145 17.48391507
   7.12524148  5.81576681 10.15764776
   7.04062745  1.25857204 15.08132826
   8.51222037  3.28035836 10.20449636
   8.55859325  8.30778893 14.95095658
  10.22263181  8.06723005 12.77991378
  10.19585317  3.72825734 17.52313904
   5.42664188  8.10481479 10.20639088
   5.36492079  3.53978844 15.12234540
   8.52842696  5.75423100 12.65640004
   8.66163105  1.13028632 17.46799343
   3.84829318  7.97316903 12.47259035
   3.74418497  3.31572487 17.40258393
   3.73765145  5.58339207 14.78464592
   3.90063135  0.73891098 10.00000000
  10.21819924  6.06233997 15.13029390
  10.19112400  1.10469510 10.13736353
   6.82945470  7.99424061 12.66669595
   6.85533936  3.47923783 17.58458058
  11.92959814  6.21625249 17.47448274
  11.66772263  1.05372358 12.57547056
  11.73919286  3.33868345 10.41198829
  11.86264762  8.34567977 15.35693491
   7.18521672  3.24643930 12.75389771
   7.21231713  8.45093375 17.40202801
   6.84557066  6.03740339 14.82101600
   6.87794726  0.97559764 10.08695433
   5.51083508  5.55011685 12.48418803
   5.50656606  0.94970764 17.52544657
   3.51249472  3.50019267 12.83518635
   3.17917777  8.71479939 17.53400907
   3.46798404  5.87236796 10.40868071
   3.53751373  1.28400587 15.11174954
  11.91771166  8.21633417 10.24533883
  11.95498377  3.55495881 15.12851077
   5.24135036  3.36542512 10.32678719
   5.13496421  8.28512994 15.12819204
   5.19591740  6.15660101 17.42317388
   5.28930157  0.99064225 12.60849381
   1.60537885  5.84490969 12.85121538
   1.33970907  1.47282294 17.42634865
  13.72037774  5.67134198 10.18293350
  13.68467854  1.04508349 14.84686003
   1.63456451  8.33987442 10.36453009
   1.59705302  3.66054125 15.25140629
  13.76831459  3.16119411 12.53307716
   0.35550911  8.19834665 17.74378503
   1.99440444  3.17313630 10.17666150
   1.85085055  8.11218569 15.07590959
  13.48050634  8.37929939 12.86885734
  13.29216954  3.90524554 17.96919781
   1.96727956  5.83916036 17.43273410
   2.02728715  0.87737042 12.46815015
  10.07171117  5.79401911 10.14662739
  10.07946569  1.22610819 14.93124274
  11.97050705  5.66180669 12.67659812
  11.81405657  1.11877157 17.59895688
   5.20115276  8.40229529 17.48238062
  13.48048441  1.96108879 18.64825609
   3.47247570  1.16216747 17.51212667
   0.01131306  6.04462493 18.30806923
   3.70863465  5.05313386 18.39645228
   5.36375492  2.70752228 18.48380323
  10.14171357  0.24749715 18.56841507
   7.07112390  0.50396288 18.57805560
   2.18593428  7.61671009 18.71179463
   8.57463151  2.97892049 18.40627196
   6.84692512  5.23542679 18.34855392
  11.50497837  4.67885555 18.71290544
  12.03304611  8.33598834 17.54544434
   8.35552036  7.39891920 18.46823190
   9.94394592  5.93226722 17.26003549
   3.47251530  7.02039191 16.23912556
 


--------------------------------------------------------------------------------------------------------


 k-point  1 :   0.0000 0.0000 0.0000  plane waves:  121663
 k-point  2 :   0.3333 0.0000 0.0000  plane waves:  121577
 k-point  3 :   0.0000 0.3333 0.0000  plane waves:  121622
 k-point  4 :   0.3333 0.3333 0.0000  plane waves:  121647
 k-point  5 :  -0.3333 0.3333 0.0000  plane waves:  121647

 maximum and minimum number of plane-waves per node :    121663   121577

 maximum number of plane-waves:    121663
 maximum index in each direction: 
   IXMAX=   27   IYMAX=   19   IZMAX=   55
   IXMIN=  -27   IYMIN=  -19   IZMIN=  -55


 serial   3D FFT for wavefunctions
 parallel 3D FFT for charge:
    minimum data exchange during FFTs selected (reduces bandwidth)


 total amount of memory used by VASP MPI-rank0   227645. kBytes
=======================================================================

   base      :      30000. kBytes
   nonlr-proj:      41202. kBytes
   fftplans  :      11449. kBytes
   grid      :      55342. kBytes
   one-center:       1244. kBytes
   wavefun   :      88408. kBytes
 
     INWAV:  cpu time    0.0001: real time    0.0002
 Broyden mixing: mesh for mixing (old mesh)
   NGX = 55   NGY = 39   NGZ =111
  (NGX  =168   NGY  =120   NGZ  =336)
  gives a total of 238095 points

 initial charge density was supplied:
 charge density of overlapping atoms calculated
 number of electron     440.0000000 magnetization 
 keeping initial charge density in first step


--------------------------------------------------------------------------------------------------------


 Maximum index for non-local projection operator         4714
 Maximum index for augmentation-charges         1474 (set IRDMAX)


--------------------------------------------------------------------------------------------------------


 First call to EWALD:  gamma=   0.115
 Maximum number of real-space cells 3x 4x 2
 Maximum number of reciprocal cells 3x 2x 5

    FEWALD:  cpu time    0.0023: real time    0.0027


--------------------------------------- Iteration      1(   1)  ---------------------------------------


    POTLOK:  cpu time    0.1283: real time    0.1324
    SETDIJ:  cpu time    0.0095: real time    0.0096
     EDDAV:  cpu time   10.7143: real time   10.8096
       DOS:  cpu time    0.0009: real time    0.0009
    --------------------------------------------
      LOOP:  cpu time   10.8530: real time   10.9525

 eigenvalue-minimisations  :  2850
 total energy-change (2. order) : 0.5374321E+04  (-0.1689381E+05)
 number of electron     440.0000000 magnetization 
 augmentation part      440.0000000 magnetization 

 Free energy of the ion-electron system (eV)
  ---------------------------------------------------
  alpha Z        PSCENC =       693.94989547
  Ewald energy   TEWEN  =    102931.68499907
  -Hartree energ DENC   =   -127239.03390063
  -exchange      EXHF   =         0.00000000
  -V(xc)+E(xc)   XCENC  =     -2641.65572679
  PAW double counting   =     24984.07275341   -20921.61770481
  entropy T*S    EENTRO =         0.00874704
  eigenvalues    EBANDS =       523.11723622
  atomic energy  EATOM  =     27043.79424741
  Solvation  Ediel_sol  =         0.00000000
  ---------------------------------------------------
  free energy    TOTEN  =      5374.32054640 eV

  energy without entropy =     5374.31179936  energy(sigma->0) =     5374.31835964


--------------------------------------------------------------------------------------------------------




--------------------------------------- Iteration      1(   2)  ---------------------------------------


     EDDAV:  cpu time   11.1048: real time   11.1538
       DOS:  cpu time    0.0006: real time    0.0006
    --------------------------------------------
      LOOP:  cpu time   11.1054: real time   11.1545

 eigenvalue-minimisations  :  3000
 total energy-change (2. order) :-0.4697028E+04  (-0.4558525E+04)
 number of electron     440.0000000 magnetization 
 augmentation part      440.0000000 magnetization 

 Free energy of the ion-electron system (eV)
  ---------------------------------------------------
  alpha Z        PSCENC =       693.94989547
  Ewald energy   TEWEN  =    102931.68499907
  -Hartree energ DENC   =   -127239.03390063
  -exchange      EXHF   =         0.00000000
  -V(xc)+E(xc)   XCENC  =     -2641.65572679
  PAW double counting   =     24984.07275341   -20921.61770481
  entropy T*S    EENTRO =         0.00766862
  eigenvalues    EBANDS =     -4173.90964369
  atomic energy  EATOM  =     27043.79424741
  Solvation  Ediel_sol  =         0.00000000
  ---------------------------------------------------
  free energy    TOTEN  =       677.29258807 eV

  energy without entropy =      677.28491945  energy(sigma->0) =      677.29067091


--------------------------------------------------------------------------------------------------------




--------------------------------------- Iteration      1(   3)  ---------------------------------------


     EDDAV:  cpu time   16.3586: real time   16.4211
       DOS:  cpu time    0.0007: real time    0.0007
    --------------------------------------------
      LOOP:  cpu time   16.3592: real time   16.4218

 eigenvalue-minimisations  :  4740
 total energy-change (2. order) :-0.1231674E+04  (-0.1195619E+04)
 number of electron     440.0000000 magnetization 
 augmentation part      440.0000000 magnetization 

 Free energy of the ion-electron system (eV)
  ---------------------------------------------------
  alpha Z        PSCENC =       693.94989547
  Ewald energy   TEWEN  =    102931.68499907
  -Hartree energ DENC   =   -127239.03390063
  -exchange      EXHF   =         0.00000000
  -V(xc)+E(xc)   XCENC  =     -2641.65572679
  PAW double counting   =     24984.07275341   -20921.61770481
  entropy T*S    EENTRO =         0.00634674
  eigenvalues    EBANDS =     -5405.58276005
  atomic energy  EATOM  =     27043.79424741
  Solvation  Ediel_sol  =         0.00000000
  ---------------------------------------------------
  free energy    TOTEN  =      -554.38185018 eV

  energy without entropy =     -554.38819691  energy(sigma->0) =     -554.38343686


--------------------------------------------------------------------------------------------------------




--------------------------------------- Iteration      1(   4)  ---------------------------------------


     EDDAV:  cpu time   15.5483: real time   15.6061
       DOS:  cpu time    0.0006: real time    0.0006
    --------------------------------------------
      LOOP:  cpu time   15.5489: real time   15.6068

 eigenvalue-minimisations  :  4500
 total energy-change (2. order) :-0.1988110E+03  (-0.1948153E+03)
 number of electron     440.0000000 magnetization 
 augmentation part      440.0000000 magnetization 

 Free energy of the ion-electron system (eV)
  ---------------------------------------------------
  alpha Z        PSCENC =       693.94989547
  Ewald energy   TEWEN  =    102931.68499907
  -Hartree energ DENC   =   -127239.03390063
  -exchange      EXHF   =         0.00000000
  -V(xc)+E(xc)   XCENC  =     -2641.65572679
  PAW double counting   =     24984.07275341   -20921.61770481
  entropy T*S    EENTRO =         0.00250170
  eigenvalues    EBANDS =     -5604.38996417
  atomic energy  EATOM  =     27043.79424741
  Solvation  Ediel_sol  =         0.00000000
  ---------------------------------------------------
  free energy    TOTEN  =      -753.19289934 eV

  energy without entropy =     -753.19540104  energy(sigma->0) =     -753.19352476


--------------------------------------------------------------------------------------------------------




--------------------------------------- Iteration      1(   5)  ---------------------------------------


     EDDAV:  cpu time   16.6718: real time   16.7302
       DOS:  cpu time    0.0006: real time    0.0006
    CHARGE:  cpu time    0.5304: real time    0.5352
    MIXING:  cpu time    0.0033: real time    0.0033
    --------------------------------------------
      LOOP:  cpu time   17.2061: real time   17.2694

 eigenvalue-minimisations  :  4860
 total energy-change (2. order) :-0.1301854E+02  (-0.1278234E+02)
 number of electron     440.0000135 magnetization 
 augmentation part       52.5131163 magnetization 

 Broyden mixing:
  rms(total) = 0.80810E+01    rms(broyden)= 0.80808E+01
  rms(prec ) = 0.85326E+01
  weight for this iteration     100.00

 Free energy of the ion-electron system (eV)
  ---------------------------------------------------
  alpha Z        PSCENC =       693.94989547
  Ewald energy   TEWEN  =    102931.68499907
  -Hartree energ DENC   =   -127239.03390063
  -exchange      EXHF   =         0.00000000
  -V(xc)+E(xc)   XCENC  =     -2641.65572679
  PAW double counting   =     24984.07275341   -20921.61770481
  entropy T*S    EENTRO =         0.00151781
  eigenvalues    EBANDS =     -5617.40751973
  atomic energy  EATOM  =     27043.79424741
  Solvation  Ediel_sol  =         0.00000000
  ---------------------------------------------------
  free energy    TOTEN  =      -766.21143879 eV

  energy without entropy =     -766.21295660  energy(sigma->0) =     -766.21181824


--------------------------------------------------------------------------------------------------------




--------------------------------------- Iteration      1(   6)  ---------------------------------------


    POTLOK:  cpu time    0.1122: real time    0.1130
    SETDIJ:  cpu time    0.0113: real time    0.0116
     EDDAV:  cpu time   16.4603: real time   16.5217
       DOS:  cpu time    0.0007: real time    0.0007
    CHARGE:  cpu time    0.5268: real time    0.5299
    MIXING:  cpu time    0.0043: real time    0.0087
    --------------------------------------------
      LOOP:  cpu time   17.1158: real time   17.1856

 eigenvalue-minimisations  :  4800
 total energy-change (2. order) :-0.4200889E+02  (-0.1571749E+03)
 number of electron     440.0000080 magnetization 
 augmentation part       76.8664974 magnetization 

 Broyden mixing:
  rms(total) = 0.83515E+01    rms(broyden)= 0.83513E+01
  rms(prec ) = 0.11486E+02
  weight for this iteration     100.00

 eigenvalues of (default mixing * dielectric matrix)
  average eigenvalue GAMMA=   0.5351
  0.5351

 Free energy of the ion-electron system (eV)
  ---------------------------------------------------
  alpha Z        PSCENC =       693.94989547
  Ewald energy   TEWEN  =    102931.68499907
  -Hartree energ DENC   =   -128109.50380432
  -exchange      EXHF   =         0.00000000
  -V(xc)+E(xc)   XCENC  =     -2608.55351567
  PAW double counting   =     29639.40453975   -25585.11282189
  entropy T*S    EENTRO =         0.00310109
  eigenvalues    EBANDS =     -4813.88697395
  atomic energy  EATOM  =     27043.79424741
  Solvation  Ediel_sol  =         0.00000000
  ---------------------------------------------------
  free energy    TOTEN  =      -808.22033303 eV

  energy without entropy =     -808.22343413  energy(sigma->0) =     -808.22110831


--------------------------------------------------------------------------------------------------------




--------------------------------------- Iteration      1(   7)  ---------------------------------------


    POTLOK:  cpu time    0.1110: real time    0.1115
    SETDIJ:  cpu time    0.0085: real time    0.0089
     EDDAV:  cpu time   15.4010: real time   15.4597
       DOS:  cpu time    0.0010: real time    0.0010
    CHARGE:  cpu time    0.5335: real time    0.5383
    MIXING:  cpu time    0.0033: real time    0.0041
    --------------------------------------------
      LOOP:  cpu time   16.0583: real time   16.1236

 eigenvalue-minimisations  :  4440
 total energy-change (2. order) :-0.1009995E+01  (-0.3761654E+03)
 number of electron     440.0000089 magnetization 
 augmentation part       73.9440826 magnetization 

 Broyden mixing:
  rms(total) = 0.60579E+01    rms(broyden)= 0.60579E+01
  rms(prec ) = 0.10174E+02
  weight for this iteration     100.00

 eigenvalues of (default mixing * dielectric matrix)
  average eigenvalue GAMMA=   0.5123
  0.7694  0.2553

 Free energy of the ion-electron system (eV)
  ---------------------------------------------------
  alpha Z        PSCENC =       693.94989547
  Ewald energy   TEWEN  =    102931.68499907
  -Hartree energ DENC   =   -127366.42639555
  -exchange      EXHF   =         0.00000000
  -V(xc)+E(xc)   XCENC  =     -2613.71743984
  PAW double counting   =     30224.16356056   -26183.82875867
  entropy T*S    EENTRO =         0.00046239
  eigenvalues    EBANDS =     -5538.85089869
  atomic energy  EATOM  =     27043.79424741
  Solvation  Ediel_sol  =         0.00000000
  ---------------------------------------------------
  free energy    TOTEN  =      -809.23032784 eV

  energy without entropy =     -809.23079023  energy(sigma->0) =     -809.23044344


--------------------------------------------------------------------------------------------------------




--------------------------------------- Iteration      1(   8)  ---------------------------------------


    POTLOK:  cpu time    0.1098: real time    0.1103
    SETDIJ:  cpu time    0.0076: real time    0.0076
     EDDAV:  cpu time   15.3623: real time   15.4295
       DOS:  cpu time    0.0006: real time    0.0006
    CHARGE:  cpu time    0.5336: real time    0.5390
    MIXING:  cpu time    0.0032: real time    0.0036
    --------------------------------------------
      LOOP:  cpu time   16.0171: real time   16.0908

 eigenvalue-minimisations  :  4440
 total energy-change (2. order) : 0.5325352E+02  (-0.1675991E+03)
 number of electron     440.0000104 magnetization 
 augmentation part       56.9566971 magnetization 

 Broyden mixing:
  rms(total) = 0.45161E+01    rms(broyden)= 0.45161E+01
  rms(prec ) = 0.63315E+01
  weight for this iteration     100.00

 eigenvalues of (default mixing * dielectric matrix)
  average eigenvalue GAMMA=   0.5607
  1.1594  0.2865  0.2363

 Free energy of the ion-electron system (eV)
  ---------------------------------------------------
  alpha Z        PSCENC =       693.94989547
  Ewald energy   TEWEN  =    102931.68499907
  -Hartree energ DENC   =   -127660.69358863
  -exchange      EXHF   =         0.00000000
  -V(xc)+E(xc)   XCENC  =     -2619.16113951
  PAW double counting   =     31040.00952581   -27012.79140421
  entropy T*S    EENTRO =        -0.00119832
  eigenvalues    EBANDS =     -5172.76814055
  atomic energy  EATOM  =     27043.79424741
  Solvation  Ediel_sol  =         0.00000000
  ---------------------------------------------------
  free energy    TOTEN  =      -755.97680344 eV

  energy without entropy =     -755.97560512  energy(sigma->0) =     -755.97650386


--------------------------------------------------------------------------------------------------------




--------------------------------------- Iteration      1(   9)  ---------------------------------------


    POTLOK:  cpu time    0.1093: real time    0.1099
    SETDIJ:  cpu time    0.0077: real time    0.0078
     EDDAV:  cpu time   16.1492: real time   16.2060
       DOS:  cpu time    0.0006: real time    0.0006
    CHARGE:  cpu time    0.5373: real time    0.5402
    MIXING:  cpu time    0.0035: real time    0.0038
    --------------------------------------------
      LOOP:  cpu time   16.8076: real time   16.8682

 eigenvalue-minimisations  :  4680
 total energy-change (2. order) : 0.4303663E+02  (-0.4896413E+02)
 number of electron     440.0000103 magnetization 
 augmentation part       52.7496468 magnetization 

 Broyden mixing:
  rms(total) = 0.38296E+01    rms(broyden)= 0.38296E+01
  rms(prec ) = 0.48437E+01
  weight for this iteration     100.00

 eigenvalues of (default mixing * dielectric matrix)
  average eigenvalue GAMMA=   0.5738
  1.4010  0.3567  0.3567  0.1809

 Free energy of the ion-electron system (eV)
  ---------------------------------------------------
  alpha Z        PSCENC =       693.94989547
  Ewald energy   TEWEN  =    102931.68499907
  -Hartree energ DENC   =   -127589.00710240
  -exchange      EXHF   =         0.00000000
  -V(xc)+E(xc)   XCENC  =     -2618.40005122
  PAW double counting   =     32148.82827116   -28122.90735434
  entropy T*S    EENTRO =        -0.00708669
  eigenvalues    EBANDS =     -5200.87599144
  atomic energy  EATOM  =     27043.79424741
  Solvation  Ediel_sol  =         0.00000000
  ---------------------------------------------------
  free energy    TOTEN  =      -712.94017297 eV

  energy without entropy =     -712.93308628  energy(sigma->0) =     -712.93840130


--------------------------------------------------------------------------------------------------------




--------------------------------------- Iteration      1(  10)  ---------------------------------------


    POTLOK:  cpu time    0.1099: real time    0.1104
    SETDIJ:  cpu time    0.0078: real time    0.0078
     EDDAV:  cpu time   14.6257: real time   14.6767
       DOS:  cpu time    0.0007: real time    0.0007
    CHARGE:  cpu time    0.5230: real time    0.5249
    MIXING:  cpu time    0.0042: real time    0.0042
    --------------------------------------------
      LOOP:  cpu time   15.2713: real time   15.3248

 eigenvalue-minimisations  :  4200
 total energy-change (2. order) : 0.2827281E+02  (-0.1446433E+02)
 number of electron     440.0000108 magnetization 
 augmentation part       56.3281976 magnetization 

 Broyden mixing:
  rms(total) = 0.27961E+01    rms(broyden)= 0.27961E+01
  rms(prec ) = 0.32703E+01
  weight for this iteration     100.00

 eigenvalues of (default mixing * dielectric matrix)
  average eigenvalue GAMMA=   0.6490
  1.7877  0.4928  0.4928  0.2949  0.1766

 Free energy of the ion-electron system (eV)
  ---------------------------------------------------
  alpha Z        PSCENC =       693.94989547
  Ewald energy   TEWEN  =    102931.68499907
  -Hartree energ DENC   =   -127726.08052827
  -exchange      EXHF   =         0.00000000
  -V(xc)+E(xc)   XCENC  =     -2613.85542879
  PAW double counting   =     33086.42013823   -29052.80014481
  entropy T*S    EENTRO =        -0.00371758
  eigenvalues    EBANDS =     -5047.77682150
  atomic energy  EATOM  =     27043.79424741
  Solvation  Ediel_sol  =         0.00000000
  ---------------------------------------------------
  free energy    TOTEN  =      -684.66736076 eV

[...]
      6.845571  6.037403 14.821016            0           0           0  
      6.877947  0.975598 10.086954            0           0           0  
      5.510835  5.550117 12.484188            0           0           0  
      5.506566  0.949708 17.525447            0           0           0  
      3.512495  3.500193 12.835186            0           0           0  
      3.179178  8.714799 17.534009            0           0           0  
      3.467984  5.872368 10.408681            0           0           0  
      3.537514  1.284006 15.111750            0           0           0  
     11.917712  8.216334 10.245339            0           0           0  
     11.954984  3.554959 15.128511            0           0           0  
      5.241350  3.365425 10.326787            0           0           0  
      5.134964  8.285130 15.128192            0           0           0  
      5.195917  6.156601 17.423174            0           0           0  
      5.289302  0.990642 12.608494            0           0           0  
      1.605379  5.844910 12.851215            0           0           0  
      1.339709  1.472823 17.426349            0           0           0  
     13.720378  5.671342 10.182934            0           0           0  
     13.684679  1.045083 14.846860            0           0           0  
      1.634565  8.339874 10.364530            0           0           0  
      1.597053  3.660541 15.251406            0           0           0  
     13.768315  3.161194 12.533077            0           0           0  
      0.355509  8.198347 17.743785            0           0           0  
      1.994404  3.173136 10.176661            0           0           0  
      1.850851  8.112186 15.075910            0           0           0  
     13.480506  8.379299 12.868857            0           0           0  
     13.292170  3.905246 17.969198            0           0           0  
      1.967280  5.839160 17.432734            0           0           0  
      2.027287  0.877370 12.468150            0           0           0  
     10.071711  5.794019 10.146627            0           0           0  
     10.079466  1.226108 14.931243            0           0           0  
     11.970507  5.661807 12.676598            0           0           0  
     11.814057  1.118772 17.598957            0           0           0  
      5.201153  8.402295 17.482381            0           0   -0.993888  
     13.480484  1.961089 18.648256            0           0   -0.005460  
      3.472476  1.162167 17.512127            0           0    0.081306  
      0.011313  6.044625 18.308069            0           0    0.026473  
      3.708635  5.053134 18.396452            0           0    0.002668  
      5.363755  2.707522 18.483803            0           0    0.020026  
     10.141714  0.247497 18.568415            0           0    0.003577  
      7.071124  0.503963 18.578056            0           0    0.007907  
      2.185934  7.616710 18.711795            0           0    0.008490  
      8.574632  2.978920 18.406272            0           0    0.010132  
      6.846925  5.235427 18.348554            0           0    0.011671  
     11.504978  4.678856 18.712905            0           0   -0.001288  
     12.033046  8.335988 17.545444            0           0   -0.001434  
      8.355520  7.398919 18.468232            0           0    0.010013  
      9.943946  5.932267 17.260035            0           0   -0.003124  
      3.472515  7.020392 16.239126            0           0   -0.062744  
 
  15 f  =    8.485024 THz    53.312980 2PiTHz  283.029936 cm-1    35.091252 meV
             X         Y         Z           dx          dy          dz
      8.576308  8.296846 10.398452            0           0           0  
      8.511105  3.789220 15.133387            0           0           0  
      8.111673  5.977297 17.232028            0           0           0  
      8.516162  0.799950 12.438738            0           0           0  
     13.504730  6.076497 15.189655            0           0           0  
     13.490936  1.153156 10.447489            0           0           0  
     10.033436  3.284281 12.674110            0           0           0  
      9.978694  8.091911 17.483915            0           0           0  
      7.125241  5.815767 10.157648            0           0           0  
      7.040627  1.258572 15.081328            0           0           0  
      8.512220  3.280358 10.204496            0           0           0  
      8.558593  8.307789 14.950957            0           0           0  
     10.222632  8.067230 12.779914            0           0           0  
     10.195853  3.728257 17.523139            0           0           0  
      5.426642  8.104815 10.206391            0           0           0  
      5.364921  3.539788 15.122345            0           0           0  
      8.528427  5.754231 12.656400            0           0           0  
      8.661631  1.130286 17.467993            0           0           0  
      3.848293  7.973169 12.472590            0           0           0  
      3.744185  3.315725 17.402584            0           0           0  
      3.737651  5.583392 14.784646            0           0           0  
      3.900631  0.738911 10.000000            0           0           0  
     10.218199  6.062340 15.130294            0           0           0  
     10.191124  1.104695 10.137364            0           0           0  
      6.829455  7.994241 12.666696            0           0           0  
      6.855339  3.479238 17.584581            0           0           0  
     11.929598  6.216252 17.474483            0           0           0  
     11.667723  1.053724 12.575471            0           0           0  
     11.739193  3.338683 10.411988            0           0           0  
     11.862648  8.345680 15.356935            0           0           0  
      7.185217  3.246439 12.753898            0           0           0  
      7.212317  8.450934 17.402028            0           0           0  
      6.845571  6.037403 14.821016            0           0           0  
      6.877947  0.975598 10.086954            0           0           0  
      5.510835  5.550117 12.484188            0           0           0  
      5.506566  0.949708 17.525447            0           0           0  
      3.512495  3.500193 12.835186            0           0           0  
      3.179178  8.714799 17.534009            0           0           0  
      3.467984  5.872368 10.408681            0           0           0  
      3.537514  1.284006 15.111750            0           0           0  
     11.917712  8.216334 10.245339            0           0           0  
     11.954984  3.554959 15.128511            0           0           0  
      5.241350  3.365425 10.326787            0           0           0  
      5.134964  8.285130 15.128192            0           0           0  
      5.195917  6.156601 17.423174            0           0           0  
      5.289302  0.990642 12.608494            0           0           0  
      1.605379  5.844910 12.851215            0           0           0  
      1.339709  1.472823 17.426349            0           0           0  
     13.720378  5.671342 10.182934            0           0           0  
     13.684679  1.045083 14.846860            0           0           0  
      1.634565  8.339874 10.364530            0           0           0  
      1.597053  3.660541 15.251406            0           0           0  
     13.768315  3.161194 12.533077            0           0           0  
      0.355509  8.198347 17.743785            0           0           0  
      1.994404  3.173136 10.176661            0           0           0  
      1.850851  8.112186 15.075910            0           0           0  
     13.480506  8.379299 12.868857            0           0           0  
     13.292170  3.905246 17.969198            0           0           0  
      1.967280  5.839160 17.432734            0           0           0  
      2.027287  0.877370 12.468150            0           0           0  
     10.071711  5.794019 10.146627            0           0           0  
     10.079466  1.226108 14.931243            0           0           0  
     11.970507  5.661807 12.676598            0           0           0  
     11.814057  1.118772 17.598957            0           0           0  
      5.201153  8.402295 17.482381            0           0    0.081530  
     13.480484  1.961089 18.648256            0           0   -0.023982  
      3.472476  1.162167 17.512127            0           0    0.995284  
      0.011313  6.044625 18.308069            0           0    0.005292  
      3.708635  5.053134 18.396452            0           0   -0.038030  
      5.363755  2.707522 18.483803            0           0   -0.011070  
     10.141714  0.247497 18.568415            0           0    0.003362  
      7.071124  0.503963 18.578056            0           0   -0.021979  
      2.185934  7.616710 18.711795            0           0   -0.003079  
      8.574632  2.978920 18.406272            0           0   -0.001070  
      6.846925  5.235427 18.348554            0           0   -0.004625  
     11.504978  4.678856 18.712905            0           0    0.002254  
     12.033046  8.335988 17.545444            0           0   -0.003660  
      8.355520  7.398919 18.468232            0           0    0.001119  
      9.943946  5.932267 17.260035            0           0   -0.002388  
      3.472515  7.020392 16.239126            0           0   -0.006261  
 
  16 f  =    8.340942 THz    52.407687 2PiTHz  278.223885 cm-1    34.495378 meV
             X         Y         Z           dx          dy          dz
      8.576308  8.296846 10.398452            0           0           0  
      8.511105  3.789220 15.133387            0           0           0  
      8.111673  5.977297 17.232028            0           0           0  
      8.516162  0.799950 12.438738            0           0           0  
     13.504730  6.076497 15.189655            0           0           0  
     13.490936  1.153156 10.447489            0           0           0  
     10.033436  3.284281 12.674110            0           0           0  
      9.978694  8.091911 17.483915            0           0           0  
      7.125241  5.815767 10.157648            0           0           0  
      7.040627  1.258572 15.081328            0           0           0  
      8.512220  3.280358 10.204496            0           0           0  
      8.558593  8.307789 14.950957            0           0           0  
     10.222632  8.067230 12.779914            0           0           0  
     10.195853  3.728257 17.523139            0           0           0  
      5.426642  8.104815 10.206391            0           0           0  
      5.364921  3.539788 15.122345            0           0           0  
      8.528427  5.754231 12.656400            0           0           0  
      8.661631  1.130286 17.467993            0           0           0  
      3.848293  7.973169 12.472590            0           0           0  
      3.744185  3.315725 17.402584            0           0           0  
      3.737651  5.583392 14.784646            0           0           0  
      3.900631  0.738911 10.000000            0           0           0  
     10.218199  6.062340 15.130294            0           0           0  
     10.191124  1.104695 10.137364            0           0           0  
      6.829455  7.994241 12.666696            0           0           0  
      6.855339  3.479238 17.584581            0           0           0  
     11.929598  6.216252 17.474483            0           0           0  
     11.667723  1.053724 12.575471            0           0           0  
     11.739193  3.338683 10.411988            0           0           0  
     11.862648  8.345680 15.356935            0           0           0  
      7.185217  3.246439 12.753898            0           0           0  
      7.212317  8.450934 17.402028            0           0           0  
      6.845571  6.037403 14.821016            0           0           0  
      6.877947  0.975598 10.086954            0           0           0  
      5.510835  5.550117 12.484188            0           0           0  
      5.506566  0.949708 17.525447            0           0           0  
      3.512495  3.500193 12.835186            0           0           0  
      3.179178  8.714799 17.534009            0           0           0  
      3.467984  5.872368 10.408681            0           0           0  
      3.537514  1.284006 15.111750            0           0           0  
     11.917712  8.216334 10.245339            0           0           0  
     11.954984  3.554959 15.128511            0           0           0  
      5.241350  3.365425 10.326787            0           0           0  
      5.134964  8.285130 15.128192            0           0           0  
      5.195917  6.156601 17.423174            0           0           0  
      5.289302  0.990642 12.608494            0           0           0  
      1.605379  5.844910 12.851215            0           0           0  
      1.339709  1.472823 17.426349            0           0           0  
     13.720378  5.671342 10.182934            0           0           0  
     13.684679  1.045083 14.846860            0           0           0  
      1.634565  8.339874 10.364530            0           0           0  
      1.597053  3.660541 15.251406            0           0           0  
     13.768315  3.161194 12.533077            0           0           0  
      0.355509  8.198347 17.743785            0           0           0  
      1.994404  3.173136 10.176661            0           0           0  
      1.850851  8.112186 15.075910            0           0           0  
     13.480506  8.379299 12.868857            0           0           0  
     13.292170  3.905246 17.969198            0           0           0  
      1.967280  5.839160 17.432734            0           0           0  
      2.027287  0.877370 12.468150            0           0           0  
     10.071711  5.794019 10.146627            0           0           0  
     10.079466  1.226108 14.931243            0           0           0  
     11.970507  5.661807 12.676598            0           0           0  
     11.814057  1.118772 17.598957            0           0           0  
      5.201153  8.402295 17.482381            0           0    0.001561  
     13.480484  1.961089 18.648256            0           0    0.002426  
      3.472476  1.162167 17.512127            0           0   -0.003672  
      0.011313  6.044625 18.308069            0           0    0.013515  
      3.708635  5.053134 18.396452            0           0    0.003367  
      5.363755  2.707522 18.483803            0           0    0.001502  
     10.141714  0.247497 18.568415            0           0    0.017612  
      7.071124  0.503963 18.578056            0           0    0.001985  
      2.185934  7.616710 18.711795            0           0    0.009781  
      8.574632  2.978920 18.406272            0           0   -0.001989  
      6.846925  5.235427 18.348554            0           0   -0.003832  
     11.504978  4.678856 18.712905            0           0    0.013583  
     12.033046  8.335988 17.545444            0           0   -0.999134  
      8.355520  7.398919 18.468232            0           0    0.025249  
      9.943946  5.932267 17.260035            0           0    0.015710  
      3.472515  7.020392 16.239126            0           0    0.003964  
 
 Finite differences POTIM=  1.500000000000000E-002
  LATTYP: Found a simple orthorhombic cell.
 ALAT       =     9.5644817352
 B/A-ratio  =     1.4398428730
 C/A-ratio  =     2.8922184390
  
  Lattice vectors:
  
 A1 = (   0.0000000000,  -9.5644817352,   0.0000000000)
 A2 = ( -13.7713508606,   0.0000000000,   0.0000000000)
 A3 = (   0.0000000000,   0.0000000000, -27.6625704340)


Analysis of symmetry for initial positions (statically):
=====================================================================
 Subroutine PRICEL returns:
 Original cell was already a primitive cell.
 

 Routine SETGRP: Setting up the symmetry group for a 
 simple orthorhombic supercell.


 Subroutine GETGRP returns: Found  1 space group operations
 (whereof  1 operations were pure point group operations)
 out of a pool of  8 trial point group operations.


The static configuration has the point symmetry C_1 .


Analysis of symmetry for dynamics (positions and initial velocities):
=====================================================================
 Subroutine PRICEL returns:
 Original cell was already a primitive cell.
 

 Routine SETGRP: Setting up the symmetry group for a 
 simple orthorhombic supercell.


 Subroutine GETGRP returns: Found  1 space group operations
 (whereof  1 operations were pure point group operations)
 out of a pool of  8 trial point group operations.


The dynamic configuration has the point symmetry C_1 .


Analysis of constrained symmetry for selective dynamics:
=====================================================================
 Subroutine PRICEL returns:
 Original cell was already a primitive cell.
 

 Routine SETGRP: Setting up the symmetry group for a 
 simple orthorhombic supercell.


 Subroutine GETGRP returns: Found  1 space group operations
 (whereof  1 operations were pure point group operations)
 out of a pool of  8 trial point group operations.


The constrained configuration has the point symmetry C_1 .


 Subroutine INISYM returns: Found  1 space group operations
 (whereof  1 operations are pure point group operations),
 and found     1 'primitive' translations

 
 KPOINTS: k-points                                

Automatic generation of k-mesh.
Space group operators:
 irot       det(A)        alpha          n_x          n_y          n_z        tau_x        tau_y        tau_z
    1     1.000000     0.000001     1.000000     0.000000     0.000000     0.000000     0.000000     0.000000
 
 Subroutine IBZKPT returns following result:
 ===========================================
 
 Found      5 irreducible k-points:
 
 Following reciprocal coordinates:
            Coordinates               Weight
  0.000000  0.000000  0.000000      1.000000
  0.333333  0.000000  0.000000      2.000000
  0.000000  0.333333  0.000000      2.000000
  0.333333  0.333333  0.000000      2.000000
 -0.333333  0.333333  0.000000      2.000000
 
 Following cartesian coordinates:
            Coordinates               Weight
  0.000000  0.000000  0.000000      1.000000
  0.024205  0.000000  0.000000      2.000000
  0.000000  0.034851  0.000000      2.000000
  0.024205  0.034851  0.000000      2.000000
 -0.024205  0.034851  0.000000      2.000000
 
     LOOP+:  cpu time  136.8143: real time  137.3763
    4ORBIT:  cpu time    0.0000: real time    0.0000

 total amount of memory used by VASP MPI-rank0   227645. kBytes
=======================================================================

   base      :      30000. kBytes
   nonlr-proj:      41202. kBytes
   fftplans  :      11449. kBytes
   grid      :      55342. kBytes
   one-center:       1244. kBytes
   wavefun   :      88408. kBytes
 
  
  
 General timing and accounting informations for this job:
 ========================================================
  
                  Total CPU time used (sec):     6981.278
                            User time (sec):     6895.418
                          System time (sec):       85.861
                         Elapsed time (sec):     7008.849
  
                   Maximum memory used (kb):      610960.
                   Average memory used (kb):           0.
  
                          Minor page faults:      1462580
                          Major page faults:           42
                 Voluntary context switches:        76834
