 vasp.5.4.1 05Feb16 (build Mar 19 2020 08:54:17) complex                        
  
 executed on           IFC91_ompi date 2021.10.24  15:44:32
 running on   96 total cores
 distrk:  each k-point on   96 cores,    1 groups
 distr:  one band on NCORES_PER_BAND=  48 cores,    2 groups


--------------------------------------------------------------------------------------------------------


 INCAR:
 POTCAR:    PAW_PBE Al 04Jan2001                  
 POTCAR:    PAW_PBE Nb_sv 25May2007               
 POTCAR:    PAW_PBE Ta 17Jan2003                  
 POTCAR:    PAW_PBE Ti 08Apr2002                  
 POTCAR:   PAW_PBE Zr 08Apr2002                   
 POTCAR:    PAW_PBE O 08Apr2002                   

 ----------------------------------------------------------------------------- 
|                                                                             |
|           W    W    AA    RRRRR   N    N  II  N    N   GGGG   !!!           |
|           W    W   A  A   R    R  NN   N  II  NN   N  G    G  !!!           |
|           W    W  A    A  R    R  N N  N  II  N N  N  G       !!!           |
|           W WW W  AAAAAA  RRRRR   N  N N  II  N  N N  G  GGG   !            |
|           WW  WW  A    A  R   R   N   NN  II  N   NN  G    G                |
|           W    W  A    A  R    R  N    N  II  N    N   GGGG   !!!           |
|                                                                             |
|      For optimal performance we recommend to set                            |
|        NCORE= 4 - approx SQRT( number of cores)                             |
|      NCORE specifies how many cores store one orbital (NPAR=cpu/NCORE).     |
|      This setting can  greatly improve the performance of VASP for DFT.     |
|      The default, NPAR=number of cores might be grossly inefficient         |
|      on modern multi-core architectures or massively parallel machines.     |
|      Do your own testing !!!!                                               |
|      Unfortunately you need to use the default for GW and RPA calculations. |
|      (for HF NCORE is supported but not extensively tested yet)             |
|                                                                             |
 ----------------------------------------------------------------------------- 

 POTCAR:    PAW_PBE Al 04Jan2001                  
   VRHFIN =Al: s2p1                                                             
   LEXCH  = PE                                                                  
   EATOM  =    53.5387 eV,    3.9350 Ry                                         
                                                                                
   TITEL  = PAW_PBE Al 04Jan2001                                                
   LULTRA =        F    use ultrasoft PP ?                                      
   IUNSCR =        1    unscreen: 0-lin 1-nonlin 2-no                           
   RPACOR =    1.500    partial core radius                                     
   POMASS =   26.981; ZVAL   =    3.000    mass and valenz                      
   RCORE  =    1.900    outmost cutoff radius                                   
   RWIGS  =    2.650; RWIGS  =    1.402    wigner-seitz radius (au A)           
   ENMAX  =  240.300; ENMIN  =  180.225 eV                                      
   ICORE  =        2    local potential                                         
   LCOR   =        T    correct aug charges                                     
   LPAW   =        T    paw PP                                                  
   EAUG   =  291.052                                                            
   DEXC   =    0.000                                                            
   RMAX   =    1.939    core radius for proj-oper                               
   RAUG   =    1.300    factor for augmentation sphere                          
   RDEP   =    1.966    radius for radial grids                                 
   RDEPT  =    1.856    core radius for aug-charge                              
                                                                                
   Atomic configuration                                                         
    6 entries                                                                   
     n  l   j            E        occ.                                          
     1  0  0.50     -1511.1048   2.0000                                         
     2  0  0.50      -108.1629   2.0000                                         
     2  1  1.50       -69.6402   6.0000                                         
     3  0  0.50        -7.7528   2.0000                                         
     3  1  1.50        -2.7121   1.0000                                         
     3  2  2.50        -2.7212   0.0000                                         
   Description                                                                  
     l       E           TYP  RCUT    TYP  RCUT                                 
     0     -7.7528455     23  1.900                                             
     0     -3.3096929     23  1.900                                             
     1     -2.7120682     23  1.900                                             
     1     13.6058260     23  1.900                                             
     2     -2.7211652      7  1.900                                             
  local pseudopotential read in
  partial core-charges read in
  partial kinetic energy density read in
  atomic valenz-charges read in
  non local Contribution for L=           0  read in
    real space projection operators read in
  non local Contribution for L=           0  read in
    real space projection operators read in
  non local Contribution for L=           1  read in
    real space projection operators read in
  non local Contribution for L=           1  read in
    real space projection operators read in
    PAW grid and wavefunctions read in
 
   number of l-projection  operators is LMAX  =           4
   number of lm-projection operators is LMMAX =           8
 
 POTCAR:    PAW_PBE Nb_sv 25May2007               
   VRHFIN =Nb: 4p5s4d                                                           
   LEXCH  = PE                                                                  
   EATOM  =  1555.1913 eV,  114.3033 Ry                                         
                                                                                
   TITEL  = PAW_PBE Nb_sv 25May2007                                             
   LULTRA =        F    use ultrasoft PP ?                                      
   IUNSCR =        1    unscreen: 0-lin 1-nonlin 2-no                           
   RPACOR =    1.800    partial core radius                                     
   POMASS =   92.910; ZVAL   =   13.000    mass and valenz                      
   RCORE  =    2.400    outmost cutoff radius                                   
   RWIGS  =    2.400; RWIGS  =    1.270    wigner-seitz radius (au A)           
   ENMAX  =  293.235; ENMIN  =  219.927 eV                                      
   ICORE  =        3    local potential                                         
   LCOR   =        T    correct aug charges                                     
   LPAW   =        T    paw PP                                                  
   EAUG   =  455.659                                                            
   DEXC   =    0.000                                                            
   RMAX   =    2.456    core radius for proj-oper                               
   RAUG   =    1.300    factor for augmentation sphere                          
   RDEP   =    2.451    radius for radial grids                                 
   RDEPT  =    1.956    core radius for aug-charge                              
                                                                                
   Atomic configuration                                                         
   11 entries                                                                   
     n  l   j            E        occ.                                          
     1  0  0.50    -18805.2457   2.0000                                         
     2  0  0.50     -2630.2869   2.0000                                         
     2  1  1.50     -2348.4046   6.0000                                         
     3  0  0.50      -438.8757   2.0000                                         
     3  1  1.50      -346.7588   6.0000                                         
     3  2  2.50      -196.2560  10.0000                                         
     4  0  0.50       -58.3859   2.0000                                         
     5  0  0.50        -3.9816   1.0000                                         
     4  1  1.50       -34.5141   6.0000                                         
     4  2  2.50        -3.0408   4.0000                                         
     4  3  2.50        -1.3606   0.0000                                         
   Description                                                                  
     l       E           TYP  RCUT    TYP  RCUT                                 
     0    -58.3859094     23  2.200                                             
     0     -3.9816262     23  2.200                                             
     1    -34.5140738     23  2.200                                             
     1     13.6058260     23  2.200                                             
     2     -3.0408010     23  2.200                                             
     2     -0.1283038     23  2.200                                             
     3     -1.3605826     23  2.400                                             
  local pseudopotential read in
  partial core-charges read in
  partial kinetic energy density read in
  atomic valenz-charges read in
  non local Contribution for L=           0  read in
    real space projection operators read in
  non local Contribution for L=           0  read in
    real space projection operators read in
  non local Contribution for L=           1  read in
    real space projection operators read in
  non local Contribution for L=           1  read in
    real space projection operators read in
  non local Contribution for L=           2  read in
    real space projection operators read in
  non local Contribution for L=           2  read in
    real space projection operators read in
    PAW grid and wavefunctions read in
 
   number of l-projection  operators is LMAX  =           6
   number of lm-projection operators is LMMAX =          18
 
 POTCAR:    PAW_PBE Ta 17Jan2003                  
   VRHFIN =Ta:  6s5d                                                            
   LEXCH  = PE                                                                  
   EATOM  =   130.6506 eV,    9.6025 Ry                                         
                                                                                
   TITEL  = PAW_PBE Ta 17Jan2003                                                
   LULTRA =        F    use ultrasoft PP ?                                      
   IUNSCR =        1    unscreen: 0-lin 1-nonlin 2-no                           
   RPACOR =    2.330    partial core radius                                     
   POMASS =  180.948; ZVAL   =    5.000    mass and valenz                      
   RCORE  =    2.900    outmost cutoff radius                                   
   RWIGS  =    2.840; RWIGS  =    1.503    wigner-seitz radius (au A)           
   ENMAX  =  223.667; ENMIN  =  167.750 eV                                      
   RCLOC  =    2.205    cutoff for local pot                                    
   LCOR   =        T    correct aug charges                                     
   LPAW   =        T    paw PP                                                  
   EAUG   =  332.075                                                            
   DEXC   =    0.000                                                            
   RMAX   =    2.970    core radius for proj-oper                               
   RAUG   =    1.300    factor for augmentation sphere                          
   RDEP   =    3.060    radius for radial grids                                 
   RDEPT  =    2.354    core radius for aug-charge                              
                                                                                
   Atomic configuration                                                         
   16 entries                                                                   
     n  l   j            E        occ.                                          
     1  0  0.50    -67341.2807   2.0000                                         
     2  0  0.50    -11566.9376   2.0000                                         
     2  1  1.50    -10134.1182   6.0000                                         
     3  0  0.50     -2648.5620   2.0000                                         
     3  1  1.50     -2222.6012   6.0000                                         
     3  2  2.50     -1726.3120  10.0000                                         
     4  0  0.50      -538.6961   2.0000                                         
     4  1  1.50      -399.0129   6.0000                                         
     4  2  2.50      -220.3959  10.0000                                         
     4  3  3.50       -23.0374  14.0000                                         
     5  0  0.50       -71.2901   2.0000                                         
     5  1  1.50       -37.8225   6.0000                                         
     5  2  2.50        -2.6455   4.0000                                         
     6  0  0.50        -4.9623   1.0000                                         
     6  1  1.50        -1.3606   0.0000                                         
     5  3  2.50        -1.3606   0.0000                                         
   Description                                                                  
     l       E           TYP  RCUT    TYP  RCUT                                 
     2     -2.6455043     23  2.500                                             
     2     -0.6258895     23  2.500                                             
     0     -4.9622780     23  2.500                                             
     0      4.7531321     23  2.500                                             
     1     -1.3605826     23  2.900                                             
     1     27.2116520     23  2.900                                             
  local pseudopotential read in
  partial core-charges read in
  partial kinetic energy density read in
  atomic valenz-charges read in
  non local Contribution for L=           2  read in
    real space projection operators read in
  non local Contribution for L=           2  read in
    real space projection operators read in
  non local Contribution for L=           0  read in
    real space projection operators read in
  non local Contribution for L=           0  read in
    real space projection operators read in
  non local Contribution for L=           1  read in
    real space projection operators read in
  non local Contribution for L=           1  read in
    real space projection operators read in
    PAW grid and wavefunctions read in
 
   number of l-projection  operators is LMAX  =           6
   number of lm-projection operators is LMMAX =          18
 
 POTCAR:    PAW_PBE Ti 08Apr2002                  
   VRHFIN =Ti: d3 s1                                                            
   LEXCH  = PE                                                                  
   EATOM  =    94.7928 eV,    6.9671 Ry                                         
                                                                                
   TITEL  = PAW_PBE Ti 08Apr2002                                                
   LULTRA =        F    use ultrasoft PP ?                                      
   IUNSCR =        1    unscreen: 0-lin 1-nonlin 2-no                           
   RPACOR =    2.200    partial core radius                                     
   POMASS =   47.880; ZVAL   =    4.000    mass and valenz                      
   RCORE  =    2.800    outmost cutoff radius                                   
   RWIGS  =    2.500; RWIGS  =    1.323    wigner-seitz radius (au A)           
   ENMAX  =  178.330; ENMIN  =  133.747 eV                                      
   RCLOC  =    2.215    cutoff for local pot                                    
   LCOR   =        T    correct aug charges                                     
   LPAW   =        T    paw PP                                                  
   EAUG   =  328.883                                                            
   DEXC   =    0.000                                                            
   RMAX   =    2.868    core radius for proj-oper                               
   RAUG   =    1.300    factor for augmentation sphere                          
   RDEP   =    2.885    radius for radial grids                                 
   RDEPT  =    2.320    core radius for aug-charge                              
                                                                                
   Atomic configuration                                                         
    9 entries                                                                   
     n  l   j            E        occ.                                          
     1  0  0.50     -4865.3608   2.0000                                         
     2  0  0.50      -533.1367   2.0000                                         
     2  1  1.50      -440.5031   6.0000                                         
     3  0  0.50       -59.3186   2.0000                                         
     3  1  1.50       -35.7012   6.0000                                         
     3  2  2.50        -1.9157   3.0000                                         
     4  0  0.50        -3.7291   1.0000                                         
     4  1  1.50        -4.0817   0.0000                                         
     4  3  2.50        -1.3606   0.0000                                         
   Description                                                                  
     l       E           TYP  RCUT    TYP  RCUT                                 
     2     -1.9156924     23  2.800                                             
     2     -0.4062961     23  2.800                                             
     0     -3.7290832     23  2.800                                             
     0     20.4087390     23  2.800                                             
     1     -5.4423304     23  2.800                                             
  local pseudopotential read in
  partial core-charges read in
  partial kinetic energy density read in
  atomic valenz-charges read in
  non local Contribution for L=           2  read in
    real space projection operators read in
  non local Contribution for L=           2  read in
    real space projection operators read in
  non local Contribution for L=           0  read in
    real space projection operators read in
  non local Contribution for L=           0  read in
    real space projection operators read in
  non local Contribution for L=           1  read in
    real space projection operators read in
    PAW grid and wavefunctions read in
 
   number of l-projection  operators is LMAX  =           5
   number of lm-projection operators is LMMAX =          15
 
 POTCAR:   PAW_PBE Zr 08Apr2002                   
   VRHFIN =Zr: 5s4d5p                                                           
   LEXCH  = PE                                                                  
   EATOM  =    77.8472 eV,    5.7216 Ry                                         
                                                                                
   TITEL  = PAW_PBE Zr 08Apr2002                                                
   LULTRA =        F    use ultrasoft PP ?                                      
   IUNSCR =        1    unscreen: 0-lin 1-nonlin 2-no                           
   RPACOR =    2.200    partial core radius                                     
   POMASS =   91.224; ZVAL   =    4.000    mass and valenz                      
   RCORE  =    3.000    outmost cutoff radius                                   
   RWIGS  =    3.070; RWIGS  =    1.625    wigner-seitz radius (au A)           
   ENMAX  =  154.632; ENMIN  =  115.974 eV                                      
   RCLOC  =    2.213    cutoff for local pot                                    
   LCOR   =        T    correct aug charges                                     
   LPAW   =        T    paw PP                                                  
   EAUG   =  243.217                                                            
   DEXC   =    -.082                                                            
   RMAX   =    3.708    core radius for proj-oper                               
   RAUG   =    1.300    factor for augmentation sphere                          
   RDEP   =    3.146    radius for radial grids                                 
   QCUT   =   -3.371; QGAM   =    6.742    optimization parameters              
                                                                                
   Description                                                                  
     l     E      TYP  RCUT    TYP  RCUT                                        
     2   .000     23  3.000                                                     
     2   .000     23  3.000                                                     
     0   .000     23  3.000                                                     
     0  2.000     23  3.000                                                     
     1  -.400     23  3.000                                                     
     3   .000      7   .000                                                     
  local pseudopotential read in
  partial core-charges read in
  atomic valenz-charges read in
  non local Contribution for L=           2  read in
    real space projection operators read in
  non local Contribution for L=           2  read in
    real space projection operators read in
  non local Contribution for L=           0  read in
    real space projection operators read in
  non local Contribution for L=           0  read in
    real space projection operators read in
  non local Contribution for L=           1  read in
    real space projection operators read in
    PAW grid and wavefunctions read in
 
   number of l-projection  operators is LMAX  =           5
   number of lm-projection operators is LMMAX =          15
 
 POTCAR:    PAW_PBE O 08Apr2002                   
   VRHFIN =O: s2p4                                                              
   LEXCH  = PE                                                                  
   EATOM  =   432.3788 eV,   31.7789 Ry                                         
                                                                                
   TITEL  = PAW_PBE O 08Apr2002                                                 
   LULTRA =        F    use ultrasoft PP ?                                      
   IUNSCR =        1    unscreen: 0-lin 1-nonlin 2-no                           
   RPACOR =    1.200    partial core radius                                     
   POMASS =   16.000; ZVAL   =    6.000    mass and valenz                      
   RCORE  =    1.520    outmost cutoff radius                                   
   RWIGS  =    1.550; RWIGS  =    0.820    wigner-seitz radius (au A)           
   ENMAX  =  400.000; ENMIN  =  300.000 eV                                      
   ICORE  =        2    local potential                                         
   LCOR   =        T    correct aug charges                                     
   LPAW   =        T    paw PP                                                  
   EAUG   =  605.392                                                            
   DEXC   =    0.000                                                            
   RMAX   =    1.553    core radius for proj-oper                               
   RAUG   =    1.300    factor for augmentation sphere                          
   RDEP   =    1.550    radius for radial grids                                 
   RDEPT  =    1.329    core radius for aug-charge                              
                                                                                
   Atomic configuration                                                         
    4 entries                                                                   
     n  l   j            E        occ.                                          
     1  0  0.50      -514.6923   2.0000                                         
     2  0  0.50       -23.9615   2.0000                                         
     2  1  0.50        -9.0305   4.0000                                         
     3  2  1.50        -9.5241   0.0000                                         
   Description                                                                  
     l       E           TYP  RCUT    TYP  RCUT                                 
     0    -23.9615318     23  1.200                                             
     0     -9.5240782     23  1.200                                             
     1     -9.0304911     23  1.520                                             
     1      8.1634956     23  1.520                                             
     2     -9.5240782      7  1.500                                             
  local pseudopotential read in
  partial core-charges read in
  partial kinetic energy density read in
  kinetic energy density of atom read in
  atomic valenz-charges read in
  non local Contribution for L=           0  read in
    real space projection operators read in
  non local Contribution for L=           0  read in
    real space projection operators read in
  non local Contribution for L=           1  read in
    real space projection operators read in
  non local Contribution for L=           1  read in
    real space projection operators read in
    PAW grid and wavefunctions read in
 
   number of l-projection  operators is LMAX  =           4
   number of lm-projection operators is LMMAX =           8
 

 ----------------------------------------------------------------------------- 
|                                                                             |
|  ADVICE TO THIS USER RUNNING 'VASP/VAMP'   (HEAR YOUR MASTER'S VOICE ...):  |
|                                                                             |
|      You have a (more or less) 'large supercell' and for larger cells       |
|      it might be more efficient to use real space projection opertators     |
|      So try LREAL= Auto  in the INCAR   file.                               |
|      Mind: At the moment your POTCAR file does not contain real space       |
|       projectors, and has to be modified,  BUT if you                       |
|      want to do an extremely  accurate calculation you might also keep the  |
|      reciprocal projection scheme          (i.e. LREAL=.FALSE.)             |
|                                                                             |
 ----------------------------------------------------------------------------- 

 WARNING: PSMAXN for non-local potential too small
          PSMAXN should be >   12.5490833729506       NTYP=           5
  PAW_PBE Al 04Jan2001                  :
 energy of atom  1       EATOM=  -53.5387
 kinetic energy error for atom=    0.0002 (will be added to EATOM!!)
  PAW_PBE Nb_sv 25May2007               :
 energy of atom  2       EATOM=-1555.1913
 kinetic energy error for atom=    0.0037 (will be added to EATOM!!)
  PAW_PBE Ta 17Jan2003                  :
 energy of atom  3       EATOM= -130.6506
 kinetic energy error for atom=    0.0004 (will be added to EATOM!!)
  PAW_PBE Ti 08Apr2002                  :
 energy of atom  4       EATOM=  -94.7928
 kinetic energy error for atom=    0.0001 (will be added to EATOM!!)
 PAW_PBE Zr 08Apr2002                   :
 energy of atom  5       EATOM=  -77.8472
 kinetic energy error for atom=    0.0001 (will be added to EATOM!!)
  PAW_PBE O 08Apr2002                   :
 energy of atom  6       EATOM= -432.3788
 kinetic energy error for atom=    0.0168 (will be added to EATOM!!)
 
 
 POSCAR: Al Nb Ta Ti Zr                          
  positions in direct lattice
  velocities in cartesian coordinates
 exchange correlation table for  LEXCH =        8
   RHO(1)=    0.500       N(1)  =     2000
   RHO(2)=  100.500       N(2)  =     4000
 


--------------------------------------------------------------------------------------------------------


 ion  position               nearest neighbor table
   1  0.623  0.867  0.376-  34 2.83  25 2.88  24 2.88   9 2.88  13 2.90   4 2.91  61 2.93  15 3.16
                            41 3.35  17 3.40
   2  0.623  0.393  0.547-  14 2.79  31 2.79  23 2.80  33 2.80  26 2.80   7 2.88  10 2.90  62 2.97
                            18 3.06  17 3.17  16 3.19   3 3.22  42 3.34
   3  0.618  0.638  0.627-  32 2.76  14 2.83  23 2.90  33 2.91   8 2.91  26 2.99  27 2.99  45 3.19
                             2 3.22
   4  0.618  0.084  0.450-  31 2.80  24 2.86  34 2.87  13 2.88   1 2.91  10 2.91  25 2.92   7 2.92
                            62 2.98  12 3.13  28 3.16  46 3.24
   5  0.975  0.641  0.551-  30 2.75  42 2.90  56 2.91  27 2.93  63 2.98  52 3.01  54 3.09  47 3.09
                            59 3.11  58 3.23  23 3.26  57 3.27
   6  0.980  0.121  0.378-  29 2.80  28 2.80  53 2.91  41 2.96  51 3.05  55 3.05  60 3.08  57 3.37

   7  0.729  0.343  0.458-  28 2.77  29 2.83  31 2.85   2 2.88  17 2.89  11 2.90   4 2.92  62 3.01
                            63 3.07  42 3.09
   8  0.725  0.900  0.620-  30 2.59  32 2.70  12 2.71  27 2.76  18 2.82   3 2.91  64 3.08  62 3.16

   9  0.517  0.608  0.367-  35 2.84  15 2.85  17 2.87   1 2.88  11 2.89  61 2.95  43 3.10
  10  0.515  0.133  0.540-  18 2.75  36 2.79  16 2.81  12 2.87   2 2.90   4 2.91  31 2.95  46 2.96
                            62 3.06  44 3.15
  11  0.618  0.343  0.369-  24 2.75  34 2.83  31 2.87   9 2.89   7 2.90  61 2.96  43 3.27
  12  0.621  0.874  0.537-  13 2.68   8 2.71  32 2.71  25 2.80  23 2.83  10 2.87  62 2.93  33 2.94
                             4 3.13  44 3.39
  13  0.742  0.843  0.462-  12 2.68  17 2.87   4 2.88   1 2.90  30 2.92  28 2.94  23 2.97  63 2.98
                            41 3.05  57 3.27  62 3.46
  14  0.744  0.405  0.627-  27 2.73   2 2.79  42 2.81   3 2.83  18 2.86  64 2.96  58 3.09
  15  0.394  0.847  0.369-  22 2.68  19 2.76  25 2.83  34 2.84   9 2.85  39 2.98   1 3.16  46 3.43

  16  0.392  0.367  0.543-  21 2.64  20 2.66  26 2.71  10 2.81  33 2.85  37 2.89  31 2.90  40 3.02
                             2 3.19
  17  0.619  0.602  0.458-  25 2.81  33 2.84  31 2.85  23 2.85   9 2.87  13 2.87   7 2.89  61 2.95
                            35 3.03   2 3.17   1 3.40  63 3.44
  18  0.627  0.159  0.622-  10 2.75  26 2.76  62 2.78   8 2.82  14 2.86  32 2.86   2 3.06  36 3.18
                            64 3.27
  19  0.279  0.834  0.451-  15 2.76  35 2.94  46 2.96  39 2.97  25 2.99  44 2.99  60 3.07  51 3.08
                            47 3.12  56 3.25
  20  0.280  0.370  0.621-  67 2.27  16 2.66  36 2.92  26 3.00  52 3.00  21 3.03  40 3.06  45 3.07
                            59 3.12  48 3.15
  21  0.279  0.590  0.543-  16 2.64  45 2.89  52 2.98  59 2.99  44 3.00  35 3.03  33 3.03  20 3.03
                            37 3.07  47 3.12  56 3.14
  22  0.283  0.077  0.361-  15 2.68  46 2.97  43 2.97  34 2.99  51 3.02  55 3.10  60 3.10
  23  0.739  0.633  0.541-  30 2.76   2 2.80  27 2.80  12 2.83  17 2.85   3 2.90  63 2.93  42 2.96
                            13 2.97   5 3.26
  24  0.740  0.115  0.366-  29 2.73  11 2.75  28 2.85   4 2.86   1 2.88  41 3.00
  25  0.496  0.836  0.458-  35 2.78  12 2.80  17 2.81  15 2.83   1 2.88   4 2.92  44 2.98  19 2.99
                            46 2.99  33 3.05
  26  0.497  0.378  0.626-  16 2.71  18 2.76   2 2.80  36 2.85   3 2.99  20 3.00  45 3.02
  27  0.834  0.660  0.630-  68 2.13  14 2.73   8 2.76  58 2.80  23 2.80   5 2.93  30 2.96   3 2.99
                            54 3.04
  28  0.847  0.110  0.455-   7 2.77  62 2.77   6 2.80  24 2.85  57 2.90  13 2.94  53 2.98  29 3.15
                             4 3.16  50 3.19  41 3.36
  29  0.852  0.349  0.376-  24 2.73   6 2.80   7 2.83  53 2.94  61 2.98  49 3.07  28 3.15  63 3.25

  30  0.853  0.869  0.552-   8 2.59   5 2.75  23 2.76  54 2.91  13 2.92  27 2.96  57 2.96  62 2.99
                            50 3.05
  31  0.522  0.339  0.461-   2 2.79   4 2.80  17 2.85   7 2.85  35 2.86  11 2.87  16 2.90  10 2.95
                            46 2.95  43 3.11
  32  0.529  0.896  0.623-  65 2.01   8 2.70  12 2.71   3 2.76  36 2.78  18 2.86  44 2.99  45 3.07

  33  0.498  0.623  0.540-   2 2.80  35 2.83  17 2.84  16 2.85   3 2.91  44 2.92  12 2.94  45 2.94
                            21 3.03  25 3.05
  34  0.499  0.102  0.365-  11 2.83   1 2.83  15 2.84   4 2.87  43 2.91  46 2.98  22 2.99
  35  0.400  0.580  0.451-  25 2.78  33 2.83   9 2.84  31 2.86  37 2.88  39 2.93  19 2.94  21 3.03
                            17 3.03  43 3.08
  36  0.398  0.117  0.622-  67 2.03  65 2.18  32 2.78  10 2.79  26 2.85  38 2.91  20 2.92  40 2.92
                            44 3.15  18 3.18
  37  0.255  0.366  0.464-  35 2.88  16 2.89  47 3.02  60 3.04  43 3.05  21 3.07  55 3.08  46 3.08
                            52 3.16  40 3.24  39 3.39
  38  0.239  0.918  0.628-  65 2.03  67 2.15  56 2.86  36 2.91  44 2.97  40 3.01  59 3.06  48 3.13
                            45 3.26  54 3.34
  39  0.252  0.614  0.376-  35 2.93  19 2.97  15 2.98  47 3.07  43 3.07  51 3.07  55 3.08  37 3.39
                            49 3.53
  40  0.245  0.133  0.549-  67 2.44  36 2.92  38 3.01  16 3.02  60 3.06  20 3.06  44 3.08  52 3.11
                            56 3.19  46 3.22  48 3.22  37 3.24  50 3.46
  41  0.865  0.859  0.370-   6 2.96  24 3.00  61 3.05  13 3.05  57 3.06  49 3.12   1 3.35  28 3.36
                            51 3.49  63 3.53
  42  0.865  0.383  0.546-  14 2.81   5 2.90  23 2.96  62 3.00   7 3.09  58 3.11  63 3.14  50 3.14
                            53 3.20   2 3.34  64 3.35  52 3.41
  43  0.381  0.352  0.373-  34 2.91  22 2.97  37 3.05  39 3.07  35 3.08   9 3.10  31 3.11  55 3.26
                            11 3.27  46 3.29
  44  0.376  0.872  0.547-  65 2.44  33 2.92  38 2.97  25 2.98  19 2.99  32 2.99  21 3.00  40 3.08
                            45 3.13  36 3.15  10 3.15  56 3.36  46 3.36  12 3.39
  45  0.386  0.651  0.630-  65 2.32  21 2.89  33 2.94  26 3.02  32 3.07  20 3.07  44 3.13   3 3.19
                            38 3.26  59 3.35
  46  0.384  0.104  0.456-  31 2.95  19 2.96  10 2.96  22 2.97  34 2.98  25 2.99  37 3.08  40 3.22
                             4 3.24  60 3.27  43 3.29  44 3.36  15 3.43
  47  0.117  0.611  0.465-  37 3.02  39 3.07   5 3.09  56 3.11  19 3.12  21 3.12  53 3.14  49 3.15
                            57 3.17  52 3.20  63 3.42  51 3.52  55 3.80
  48  0.100  0.174  0.639-  66 2.08  67 2.17  50 3.06  38 3.13  20 3.15  58 3.15  52 3.19  54 3.22
                            40 3.22  64 3.27
  49  0.996  0.593  0.368-  63 3.05  29 3.07  41 3.12  47 3.15  51 3.16  55 3.23  53 3.44  39 3.53
                            61 3.65  57 3.82
  50  0.994  0.113  0.544-  30 3.05  48 3.06  64 3.13  42 3.14  57 3.15  52 3.16  28 3.19  56 3.22
                            53 3.27  54 3.27  60 3.34  40 3.46  62 3.55
  51  0.119  0.872  0.375-  60 3.00  22 3.02   6 3.05  39 3.07  19 3.08  57 3.16  49 3.16  41 3.49
                            47 3.52
  52  0.112  0.395  0.553-  21 2.98  20 3.00   5 3.01  59 3.05  40 3.11  50 3.16  37 3.16  48 3.19
                            47 3.20  53 3.22  58 3.28  42 3.41
  53  1.000  0.331  0.453-   6 2.91  29 2.94  28 2.98  60 3.06  63 3.08  55 3.09  47 3.14  42 3.20
                            52 3.22  50 3.27  49 3.44
  54  0.998  0.872  0.628-  68 2.17  30 2.91  56 3.01  27 3.04  59 3.06   5 3.09  48 3.22  64 3.24
                            50 3.27  38 3.34
  55  0.145  0.332  0.368-   6 3.05  37 3.08  39 3.08  53 3.09  22 3.10  49 3.23  60 3.24  43 3.26
                            47 3.80
  56  0.133  0.842  0.543-  38 2.86   5 2.91  54 3.01  57 3.04  59 3.06  47 3.11  21 3.14  40 3.19
                            50 3.22  19 3.25  44 3.36  60 3.51
  57  0.979  0.876  0.465-  28 2.90  30 2.96  56 3.04  41 3.06  63 3.11  60 3.13  50 3.15  51 3.16
                            47 3.17   5 3.27  13 3.27   6 3.37  49 3.82
  58  0.965  0.440  0.645-  66 2.09  68 2.16  27 2.80  14 3.09  59 3.10  42 3.11  64 3.13  48 3.15
                             5 3.23  52 3.28
  59  0.143  0.630  0.626-  68 2.42  21 2.99  52 3.05  38 3.06  54 3.06  56 3.06  58 3.10   5 3.11
                            20 3.12  45 3.35
  60  0.147  0.092  0.451-  51 3.00  37 3.04  53 3.06  40 3.06  19 3.07   6 3.08  22 3.10  57 3.13
                            55 3.24  46 3.27  50 3.34  56 3.51
  61  0.731  0.606  0.367-   1 2.93  17 2.95   9 2.95  11 2.96  29 2.98  41 3.05  63 3.17  49 3.65

  62  0.737  0.130  0.538-  28 2.77  18 2.78  12 2.93   2 2.97   4 2.98  30 2.99  42 3.00   7 3.01
                            10 3.06   8 3.16  64 3.21  13 3.46  50 3.55
  63  0.869  0.592  0.458-  23 2.93  13 2.98   5 2.98  49 3.05   7 3.07  53 3.08  57 3.11  42 3.14
                            61 3.17  29 3.25  47 3.42  17 3.44  41 3.53
  64  0.863  0.148  0.636-  66 2.15  14 2.96   8 3.08  58 3.13  50 3.13  62 3.21  54 3.24  18 3.27
                            48 3.27  42 3.35
  65  0.385  0.893  0.635-  32 2.01  38 2.03  36 2.18  45 2.32  44 2.44
  66  0.978  0.243  0.676-  48 2.08  58 2.09  64 2.15
  67  0.255  0.140  0.637-  36 2.03  38 2.15  48 2.17  20 2.27  40 2.44
  68  0.980  0.662  0.656-  27 2.13  58 2.16  54 2.17  59 2.42
 
  LATTYP: Found a simple orthorhombic cell.
 ALAT       =     9.5644817352
 B/A-ratio  =     1.4398428730
 C/A-ratio  =     2.8922184390
  
  Lattice vectors:
  
 A1 = (   0.0000000000,  -9.5644817352,   0.0000000000)
 A2 = ( -13.7713508606,   0.0000000000,   0.0000000000)
 A3 = (   0.0000000000,   0.0000000000, -27.6625704340)


Analysis of symmetry for initial positions (statically):
=====================================================================
 Subroutine PRICEL returns:
 Original cell was already a primitive cell.
 

 Routine SETGRP: Setting up the symmetry group for a 
 simple orthorhombic supercell.


 Subroutine GETGRP returns: Found  1 space group operations
 (whereof  1 operations were pure point group operations)
 out of a pool of  8 trial point group operations.


The static configuration has the point symmetry C_1 .


Analysis of symmetry for dynamics (positions and initial velocities):
=====================================================================
 Subroutine PRICEL returns:
 Original cell was already a primitive cell.
 

 Routine SETGRP: Setting up the symmetry group for a 
 simple orthorhombic supercell.


 Subroutine GETGRP returns: Found  1 space group operations
 (whereof  1 operations were pure point group operations)
 out of a pool of  8 trial point group operations.


The dynamic configuration has the point symmetry C_1 .


Analysis of constrained symmetry for selective dynamics:
=====================================================================
 Subroutine PRICEL returns:
 Original cell was already a primitive cell.
 

 Routine SETGRP: Setting up the symmetry group for a 
 simple orthorhombic supercell.


 Subroutine GETGRP returns: Found  1 space group operations
 (whereof  1 operations were pure point group operations)
 out of a pool of  8 trial point group operations.


The constrained configuration has the point symmetry C_1 .


 Subroutine INISYM returns: Found  1 space group operations
 (whereof  1 operations are pure point group operations),
 and found     1 'primitive' translations

 
 
 KPOINTS: k-points                                

Automatic generation of k-mesh.
Space group operators:
 irot       det(A)        alpha          n_x          n_y          n_z        tau_x        tau_y        tau_z
    1     1.000000     0.000000     1.000000     0.000000     0.000000     0.000000     0.000000     0.000000
 
 Subroutine IBZKPT returns following result:
 ===========================================
 
 Found      5 irreducible k-points:
 
 Following reciprocal coordinates:
            Coordinates               Weight
  0.000000  0.000000  0.000000      1.000000
  0.333333  0.000000  0.000000      2.000000
  0.000000  0.333333  0.000000      2.000000
  0.333333  0.333333  0.000000      2.000000
 -0.333333  0.333333  0.000000      2.000000
 
 Following cartesian coordinates:
            Coordinates               Weight
  0.000000  0.000000  0.000000      1.000000
  0.024205  0.000000  0.000000      2.000000
  0.000000  0.034851  0.000000      2.000000
  0.024205  0.034851  0.000000      2.000000
 -0.024205  0.034851  0.000000      2.000000
 


--------------------------------------------------------------------------------------------------------




 Dimension of arrays:
   k-points           NKPTS =      5   k-points in BZ     NKDIM =      5   number of bands    NBANDS=    220
   number of dos      NEDOS =    301   number of ions     NIONS =     68
   non local maximal  LDIM  =      6   non local SUM 2l+1 LMDIM =     18
   total plane-waves  NPLWV = 846720
   max r-space proj   IRMAX =      1   max aug-charges    IRDMAX=  25433
   dimension x,y,z NGX =    84 NGY =   60 NGZ =  168
   dimension x,y,z NGXF=   168 NGYF=  120 NGZF=  336
   support grid    NGXF=   168 NGYF=  120 NGZF=  336
   ions per type =               6  10   4  18  26   4
 NGX,Y,Z   is equivalent  to a cutoff of  10.14, 10.43, 10.10 a.u.
 NGXF,Y,Z  is equivalent  to a cutoff of  20.28, 20.86, 20.19 a.u.


 I would recommend the setting:
   dimension x,y,z NGX =    83 NGY =   57 NGZ =  166
 SYSTEM =  (110) surface                           
 POSCAR =  Al Nb Ta Ti Zr                          

 Startparameter for this run:
   NWRITE =      2    write-flag & timer
   PREC   = normal    normal or accurate (medium, high low for compatibility)
   ISTART =      0    job   : 0-new  1-cont  2-samecut
   ICHARG =      2    charge: 1-file 2-atom 10-const
   ISPIN  =      1    spin polarized calculation?
   LNONCOLLINEAR =      F non collinear calculations
   LSORBIT =      F    spin-orbit coupling
   INIWAV =      1    electr: 0-lowe 1-rand  2-diag
   LASPH  =      F    aspherical Exc in radial PAW
   METAGGA=      F    non-selfconsistent MetaGGA calc.

 Electronic Relaxation 1
   ENCUT  =  600.0 eV  44.10 Ry    6.64 a.u.  27.50 19.10 55.25*2*pi/ulx,y,z
   ENINI  =  600.0     initial cutoff
   ENAUG  =  605.4 eV  augmentation charge cutoff
   NELM   =     60;   NELMIN=  2; NELMDL= -5     # of ELM steps 
   EDIFF  = 0.1E-03   stopping-criterion for ELM
   LREAL  =      F    real-space projection
   NLSPLINE    = F    spline interpolate recip. space projectors
   LCOMPAT=      F    compatible to vasp.4.4
   GGA_COMPAT  = T    GGA compatible to vasp.4.4-vasp.4.6
   LMAXPAW     = -100 max onsite density
   LMAXMIX     =    2 max onsite mixed and CHGCAR
   VOSKOWN=      0    Vosko Wilk Nusair interpolation
   ROPT   =    0.00000   0.00000   0.00000   0.00000
   ROPT   =    0.00000   0.00000
 Ionic relaxation
   EDIFFG = -.1E-01   stopping-criterion for IOM
   NSW    =    150    number of steps for IOM
   NBLOCK =      1;   KBLOCK =    150    inner block; outer block 
   IBRION =      2    ionic relax: 0-MD 1-quasi-New 2-CG
   NFREE  =      1    steps in history (QN), initial steepest desc. (CG)
   ISIF   =      2    stress and relaxation
   IWAVPR =     11    prediction:  0-non 1-charg 2-wave 3-comb
   ISYM   =      2    0-nonsym 1-usesym 2-fastsym
   LCORR  =      T    Harris-Foulkes like correction to forces

   POTIM  = 0.1000    time-step for ionic-motion
   TEIN   =    0.0    initial temperature
   TEBEG  =    0.0;   TEEND  =   0.0 temperature during run
   SMASS  =  -3.00    Nose mass-parameter (am)
   estimated Nose-frequenzy (Omega)   =  0.10E-29 period in steps =****** mass=  -0.433E-26a.u.
   SCALEE = 1.0000    scale energy and forces
   NPACO  =    256;   APACO  = 16.0  distance and # of slots for P.C.
   PSTRESS=    0.0 pullay stress

  Mass of Ions in am
   POMASS =  26.98 92.91180.95 47.88 91.22 16.00
  Ionic Valenz
   ZVAL   =   3.00 13.00  5.00  4.00  4.00  6.00
  Atomic Wigner-Seitz radii
   RWIGS  =  -1.00 -1.00 -1.00 -1.00 -1.00 -1.00
  virtual crystal weights 
   VCA    =   1.00  1.00  1.00  1.00  1.00  1.00
   NELECT =     368.0000    total number of electrons
   NUPDOWN=      -1.0000    fix difference up-down

 DOS related values:
   EMIN   =  10.00;   EMAX   =-10.00  energy-range for DOS
   EFERMI =   0.00
   ISMEAR =     2;   SIGMA  =   0.10  broadening in eV -4-tet -1-fermi 0-gaus

 Electronic relaxation 2 (details)
   IALGO  =     68    algorithm
   LDIAG  =      T    sub-space diagonalisation (order eigenvalues)
   LSUBROT=      F    optimize rotation matrix (better conditioning)
   TURBO    =      0    0=normal 1=particle mesh
   IRESTART =      0    0=no restart 2=restart with 2 vectors
   NREBOOT  =      0    no. of reboots
   NMIN     =      0    reboot dimension
   EREF     =   0.00    reference energy to select bands
   IMIX   =      4    mixing-type and parameters
     AMIX     =   0.40;   BMIX     =  1.00
     AMIX_MAG =   1.60;   BMIX_MAG =  1.00
     AMIN     =   0.10
     WC   =   100.;   INIMIX=   1;  MIXPRE=   1;  MAXMIX= -45

 Intra band minimization:
   WEIMIN = 0.0010     energy-eigenvalue tresh-hold
   EBREAK =  0.11E-06  absolut break condition
   DEPER  =   0.30     relativ break condition  

   TIME   =   0.40     timestep for ELM

  volume/ion in A,a.u.               =      53.58       361.59
  Fermi-wavevector in a.u.,A,eV,Ry     =   0.762396  1.440719  7.908354  0.581248
  Thomas-Fermi vector in A             =   1.861848
 
 Write flags
   LWAVE  =      F    write WAVECAR
   LCHARG =      F    write CHGCAR
   LVTOT  =      F    write LOCPOT, total local potential
   LVHAR  =      F    write LOCPOT, Hartree potential only
   LELF   =      F    write electronic localiz. function (ELF)
   LORBIT =      0    0 simple, 1 ext, 2 COOP (PROOUT)


 Dipole corrections
   LMONO  =      F    monopole corrections only (constant potential shift)
   LDIPOL =      F    correct potential (dipole corrections)
   IDIPOL =      0    1-x, 2-y, 3-z, 4-all directions 
   EPSILON=  1.0000000 bulk dielectric constant

 Exchange correlation treatment:
   GGA     =    --    GGA type
   LEXCH   =     8    internal setting for exchange type
   VOSKOWN=      0    Vosko Wilk Nusair interpolation
   LHFCALC =     F    Hartree Fock is set to
   LHFONE  =     F    Hartree Fock one center treatment
   AEXX    =    0.0000 exact exchange contribution

 Linear response parameters
   LEPSILON=     F    determine dielectric tensor
   LRPA    =     F    only Hartree local field effects (RPA)
   LNABLA  =     F    use nabla operator in PAW spheres
   LVEL    =     F    velocity operator in full k-point grid
   LINTERFAST=   F  fast interpolation
   KINTER  =     0    interpolate to denser k-point grid
   CSHIFT  =0.1000    complex shift for real part using Kramers Kronig
   OMEGAMAX=  -1.0    maximum frequency
   DEG_THRESHOLD= 0.2000000E-02 threshold for treating states as degnerate
   RTIME   =    0.100 relaxation time in fs

 Orbital magnetization related:
   ORBITALMAG=     F  switch on orbital magnetization
   LCHIMAG   =     F  perturbation theory with respect to B field
   DQ        =  0.001000  dq finite difference perturbation B field



--------------------------------------------------------------------------------------------------------


 conjugate gradient relaxation of ions
   using selective dynamics as specified on POSCAR
 charge density and potential will be updated during run
 non-spin polarized calculation
 RMM-DIIS sequential band-by-band and
  variant of blocked Davidson during initial phase
 perform sub-space diagonalisation
    before iterative eigenvector-optimisation
 modified Broyden-mixing scheme, WC =      100.0
 initial mixing is a Kerker type mixing with AMIX =  0.4000 and BMIX =      1.0000
 Hartree-type preconditioning will be used
 using additional bands           36
 reciprocal scheme for non local part
 use partial core corrections
 calculate Harris-corrections to forces 
   (improved forces if not selfconsistent)
 use gradient corrections 
 use of overlap-Matrix (Vanderbilt PP)
 Methfessel and Paxton  Order N= 2 SIGMA  =   0.10


--------------------------------------------------------------------------------------------------------


  energy-cutoff  :      600.00
  volume of cell :     3643.60
      direct lattice vectors                 reciprocal lattice vectors
    13.771350861  0.000000000  0.000000000     0.072614518  0.000000000  0.000000000
     0.000000000  9.564481735  0.000000000     0.000000000  0.104553496  0.000000000
     0.000000000  0.000000000 27.662570434     0.000000000  0.000000000  0.036149931

  length of vectors
    13.771350861  9.564481735 27.662570434     0.072614518  0.104553496  0.036149931


 
 k-points in units of 2pi/SCALE and weight: k-points                                
   0.00000000  0.00000000  0.00000000       0.111
   0.02420484  0.00000000  0.00000000       0.222
   0.00000000  0.03485117  0.00000000       0.222
   0.02420484  0.03485117  0.00000000       0.222
  -0.02420484  0.03485117  0.00000000       0.222
 
 k-points in reciprocal lattice and weights: k-points                                
   0.00000000  0.00000000  0.00000000       0.111
   0.33333333  0.00000000  0.00000000       0.222
   0.00000000  0.33333333  0.00000000       0.222
   0.33333333  0.33333333  0.00000000       0.222
  -0.33333333  0.33333333  0.00000000       0.222
 
 position of ions in fractional coordinates (direct lattice) 
   0.62276447  0.86746430  0.37590333
   0.62284436  0.39321071  0.54651866
   0.61760429  0.63771690  0.62650934
   0.61839700  0.08363760  0.44965952
   0.97494097  0.64094761  0.55082341
   0.97963780  0.12056648  0.37767599
   0.72857308  0.34338307  0.45816820
   0.72457710  0.89967841  0.61953735
   0.51739597  0.60805875  0.36719826
   0.51519745  0.13269829  0.54005549
   0.61811078  0.34297293  0.36889183
   0.62074642  0.87431714  0.53685999
   0.74231148  0.84345710  0.46199300
   0.74427434  0.40533063  0.62701704
   0.39405298  0.84738672  0.36896032
   0.39209097  0.36715463  0.54331742
   0.61928761  0.60162497  0.45752798
   0.62726494  0.15882691  0.62203936
   0.27944195  0.83362269  0.45088327
   0.27974502  0.36986340  0.62141834
   0.27914301  0.59037588  0.54263608
   0.28324246  0.07725573  0.36149931
   0.73884652  0.63272061  0.54094133
   0.74002355  0.11549973  0.36646499
   0.49591756  0.83582580  0.45790018
   0.49700462  0.37818658  0.62598686
   0.83418416  0.66000089  0.63001873
   0.84724605  0.11017048  0.45460239
   0.85243583  0.34907103  0.37639265
   0.85267923  0.86876711  0.55179271
   0.52175105  0.33942658  0.46105252
   0.52867321  0.89560846  0.62313696
   0.49797477  0.62347529  0.54011146
   0.49943882  0.10200214  0.36464270
   0.40016663  0.58028412  0.45130253
   0.39815296  0.11703361  0.62203144
   0.25505811  0.36595738  0.46399110
   0.23897244  0.91775764  0.62811070
   0.25182599  0.61397660  0.37627308
   0.24525912  0.13286267  0.54884492
   0.86539888  0.85904646  0.37036829
   0.86504466  0.38302929  0.54564740
   0.38059813  0.35186696  0.37331264
   0.37575897  0.87177422  0.54682836
   0.38591811  0.65055754  0.63025708
   0.38408008  0.10357511  0.45579618
   0.11657381  0.61110574  0.46457054
   0.09952245  0.17406668  0.63897800
   0.99629861  0.59295863  0.36811234
   0.99427766  0.11256239  0.54392925
   0.11869311  0.87196302  0.37467704
   0.11184117  0.39538893  0.55284577
   0.99977952  0.33051389  0.45306987
   0.99845669  0.87195705  0.62808673
   0.14482272  0.33176249  0.36788561
   0.13303972  0.84188619  0.54320128
   0.97888047  0.87608504  0.46520830
   0.96462375  0.43982813  0.64466100
   0.14331245  0.62950357  0.62586825
   0.14721048  0.09173214  0.45072276
   0.73135245  0.60578495  0.36679988
   0.73708037  0.13036041  0.53815111
   0.86923259  0.59196168  0.45825814
   0.86279314  0.14842104  0.63556370
   0.38490887  0.89312907  0.63455519
   0.97795547  0.24274841  0.67642372
   0.25494250  0.13965250  0.63703469
   0.97979540  0.66226340  0.65625619
 
 position of ions in cartesian coordinates  (Angst):
   8.57630799  8.29684649 10.39845223
   8.57740816  3.76085661 15.11811082
   8.50524539  6.09943163 17.33085864
   8.51616202  0.79995025 12.43873821
  13.42625423  6.13033168 15.23719135
  13.49093588  1.15315590 10.44748880
  10.03343557  3.28428114 12.67411000
   9.97840547  8.60495768 17.13799558
   7.12524148  5.81576681 10.15764776
   7.09496483  1.26919037 14.93932308
   8.51222037  3.28035836 10.20449636
   8.54851675  8.36239030 14.85092741
  10.22263181  8.06723005 12.77991378
  10.24966310  3.87677737 17.34490293
   5.42664188  8.10481479 10.20639088
   5.39962226  3.51164371 15.02955628
   8.52842696  5.75423100 12.65640004
   8.63828554  1.51909711 17.20720762
   3.84829318  7.97316903 12.47259035
   3.85246676  3.53755178 17.19002868
   3.84417632  5.64663928 15.01070880
   3.90063135  0.73891098 10.00000000
  10.17491466  6.05164476 14.96382777
  10.19112400  1.10469510 10.13736353
   6.82945470  7.99424061 12.66669595
   6.84442506  3.61715866 17.31640564
  11.48784277  6.31256648 17.42793740
  11.66772263  1.05372358 12.57547056
  11.73919286  3.33868345 10.41198829
  11.74254491  8.30930713 15.26400476
   7.18521672  3.24643930 12.75389771
   7.28054429  8.56603077 17.23757007
   6.85778523  5.96321804 14.94087122
   6.87794726  0.97559764 10.08695433
   5.51083508  5.55011685 12.48418803
   5.48310415  1.11936582 17.20698857
   3.51249472  3.50019267 12.83518635
   3.29097328  8.77787615 17.37515656
   3.46798404  5.87236796 10.40868071
   3.37754941  1.27076258 15.18246126
  11.91771166  8.21633417 10.24533883
  11.91283346  3.66347661 15.09400973
   5.24135036  3.36542512 10.32678719
   5.17470863  8.33806862 15.12667802
   5.31461374  6.22224571 17.43453074
   5.28930157  0.99064225 12.60849381
   1.60537885  5.84490969 12.85121538
   1.37055859  1.66485762 17.67577401
  13.72037774  5.67134198 10.18293350
  13.69254657  1.07660090 15.04648115
   1.63456451  8.33987442 10.36453009
   1.54020394  3.78169020 15.29313505
  13.76831459  3.16119411 12.53307716
  13.75009744  8.33981727 17.37449348
   1.99440444  3.17313630 10.17666150
   1.83213670  8.05220511 15.02634362
  13.48050634  8.37929939 12.86885734
  13.28417210  4.20672807 17.83298029
   1.97360602  6.02087541 17.31312442
   2.02728715  0.87737042 12.46815015
  10.07171117  5.79401911 10.14662739
  10.15059245  1.24682972 14.88664296
  11.97050705  5.66180669 12.67659812
  11.88182699  1.41957035 17.58132575
   5.30071509  8.54231668 17.55342757
  13.46776796  2.32176274 18.71161866
   3.51090257  1.33570375 17.62201697
  13.49310623  6.33420620 18.15373320
 


--------------------------------------------------------------------------------------------------------


 k-point  1 :   0.0000 0.0000 0.0000  plane waves:  121663
 k-point  2 :   0.3333 0.0000 0.0000  plane waves:  121577
 k-point  3 :   0.0000 0.3333 0.0000  plane waves:  121622
 k-point  4 :   0.3333 0.3333 0.0000  plane waves:  121647
 k-point  5 :  -0.3333 0.3333 0.0000  plane waves:  121647

 maximum and minimum number of plane-waves per node :      2568     2510

 maximum number of plane-waves:    121663
 maximum index in each direction: 
   IXMAX=   27   IYMAX=   19   IZMAX=   55
   IXMIN=  -27   IYMIN=  -19   IZMIN=  -55

 WARNING: aliasing errors must be expected set NGX to 110 to avoid them
 WARNING: aliasing errors must be expected set NGY to  78 to avoid them
 WARNING: aliasing errors must be expected set NGZ to 222 to avoid them
 aliasing errors are usually negligible using standard VASP settings
 and one can safely disregard these warnings

 parallel 3D FFT for wavefunctions:
    minimum data exchange during FFTs selected (reduces bandwidth)
 parallel 3D FFT for charge:
    minimum data exchange during FFTs selected (reduces bandwidth)


 total amount of memory used by VASP on root node    77578. kBytes
========================================================================

   base      :      30000. kBytes
   nonl-proj :      13714. kBytes
   fftplans  :       3278. kBytes
   grid      :       7939. kBytes
   one-center:         31. kBytes
   wavefun   :      22616. kBytes
 
     INWAV:  cpu time    0.0000: real time    0.0000
 Broyden mixing: mesh for mixing (old mesh)
   NGX = 55   NGY = 39   NGZ =111
  (NGX  =168   NGY  =120   NGZ  =336)
  gives a total of 238095 points

 initial charge density was supplied:
 charge density of overlapping atoms calculated
 number of electron     368.0000000 magnetization 
 keeping initial charge density in first step


--------------------------------------------------------------------------------------------------------


 Maximum index for augmentation-charges         1033 (set IRDMAX)


--------------------------------------------------------------------------------------------------------


 First call to EWALD:  gamma=   0.115
 Maximum number of real-space cells 3x 4x 2
 Maximum number of reciprocal cells 3x 2x 5

 FEWALD executed in parallel
    FEWALD:  cpu time    0.0022: real time    0.0022


----------------------------------------- Iteration    1(   1)  ---------------------------------------


    POTLOK:  cpu time    0.0637: real time    0.0687
    SETDIJ:  cpu time    0.0110: real time    0.0141
     EDDAV:  cpu time    8.9027: real time    8.9413
       DOS:  cpu time    0.0014: real time    0.0014
    --------------------------------------------
      LOOP:  cpu time    8.9830: real time    9.0349

 eigenvalue-minimisations  :  2312
 total energy-change (2. order) : 0.4235492E+04  (-0.1345774E+05)
 number of electron     368.0000000 magnetization 
 augmentation part      368.0000000 magnetization 

 Free energy of the ion-electron system (eV)
  ---------------------------------------------------
  alpha Z        PSCENC =       552.32592117
  Ewald energy   TEWEN  =     76360.02951423
  -Hartree energ DENC   =    -95969.34017315
  -exchange      EXHF   =         0.00000000
  -V(xc)+E(xc)   XCENC  =     -2977.27801182
  PAW double counting   =     20825.47903073   -16741.43993414
  entropy T*S    EENTRO =        -0.00044225
  eigenvalues    EBANDS =       330.26593658
  atomic energy  EATOM  =     21855.45048279
  Solvation  Ediel_sol  =         0.00000000
  ---------------------------------------------------
  free energy    TOTEN  =      4235.49232415 eV

  energy without entropy =     4235.49276640  energy(sigma->0) =     4235.49243471


--------------------------------------------------------------------------------------------------------




----------------------------------------- Iteration    1(   2)  ---------------------------------------


     EDDAV:  cpu time    9.1255: real time    9.1297
       DOS:  cpu time    0.0013: real time    0.0013
    --------------------------------------------
      LOOP:  cpu time    9.1282: real time    9.1338

 eigenvalue-minimisations  :  2404
 total energy-change (2. order) :-0.3853355E+04  (-0.3745465E+04)
 number of electron     368.0000000 magnetization 
 augmentation part      368.0000000 magnetization 

 Free energy of the ion-electron system (eV)
  ---------------------------------------------------
  alpha Z        PSCENC =       552.32592117
  Ewald energy   TEWEN  =     76360.02951423
  -Hartree energ DENC   =    -95969.34017315
  -exchange      EXHF   =         0.00000000
  -V(xc)+E(xc)   XCENC  =     -2977.27801182
  PAW double counting   =     20825.47903073   -16741.43993414
  entropy T*S    EENTRO =         0.00022024
  eigenvalues    EBANDS =     -3523.08965851
  atomic energy  EATOM  =     21855.45048279
  Solvation  Ediel_sol  =         0.00000000
  ---------------------------------------------------
  free energy    TOTEN  =       382.13739155 eV

  energy without entropy =      382.13717130  energy(sigma->0) =      382.13733649


--------------------------------------------------------------------------------------------------------




----------------------------------------- Iteration    1(   3)  ---------------------------------------


     EDDAV:  cpu time   13.9407: real time   13.9422
       DOS:  cpu time    0.0014: real time    0.0014
    --------------------------------------------
      LOOP:  cpu time   13.9432: real time   13.9462

 eigenvalue-minimisations  :  4064
 total energy-change (2. order) :-0.8751333E+03  (-0.8509642E+03)
 number of electron     368.0000000 magnetization 
 augmentation part      368.0000000 magnetization 

 Free energy of the ion-electron system (eV)
  ---------------------------------------------------
  alpha Z        PSCENC =       552.32592117
  Ewald energy   TEWEN  =     76360.02951423
  -Hartree energ DENC   =    -95969.34017315
  -exchange      EXHF   =         0.00000000
  -V(xc)+E(xc)   XCENC  =     -2977.27801182
  PAW double counting   =     20825.47903073   -16741.43993414
  entropy T*S    EENTRO =        -0.00241861
  eigenvalues    EBANDS =     -4398.22035297
  atomic energy  EATOM  =     21855.45048279
  Solvation  Ediel_sol  =         0.00000000
  ---------------------------------------------------
  free energy    TOTEN  =      -492.99594177 eV

  energy without entropy =     -492.99352316  energy(sigma->0) =     -492.99533712


--------------------------------------------------------------------------------------------------------




----------------------------------------- Iteration    1(   4)  ---------------------------------------


     EDDAV:  cpu time   12.3215: real time   12.3239
       DOS:  cpu time    0.0013: real time    0.0013
    --------------------------------------------
      LOOP:  cpu time   12.3239: real time   12.3279

 eigenvalue-minimisations  :  3512
 total energy-change (2. order) :-0.1161801E+03  (-0.1114623E+03)
 number of electron     368.0000000 magnetization 
 augmentation part      368.0000000 magnetization 

 Free energy of the ion-electron system (eV)
  ---------------------------------------------------
  alpha Z        PSCENC =       552.32592117
  Ewald energy   TEWEN  =     76360.02951423
  -Hartree energ DENC   =    -95969.34017315
  -exchange      EXHF   =         0.00000000
  -V(xc)+E(xc)   XCENC  =     -2977.27801182
  PAW double counting   =     20825.47903073   -16741.43993414
  entropy T*S    EENTRO =         0.00484734
  eigenvalues    EBANDS =     -4514.40768722
  atomic energy  EATOM  =     21855.45048279
  Solvation  Ediel_sol  =         0.00000000
  ---------------------------------------------------
  free energy    TOTEN  =      -609.17601006 eV

  energy without entropy =     -609.18085741  energy(sigma->0) =     -609.17722190


--------------------------------------------------------------------------------------------------------




----------------------------------------- Iteration    1(   5)  ---------------------------------------


     EDDAV:  cpu time   14.1036: real time   14.1059
       DOS:  cpu time    0.0014: real time    0.0014
    CHARGE:  cpu time    0.2054: real time    0.2066
    MIXING:  cpu time    0.0052: real time    0.0063
    --------------------------------------------
      LOOP:  cpu time   14.3168: real time   14.3229

 eigenvalue-minimisations  :  4128
 total energy-change (2. order) :-0.1566043E+02  (-0.1521650E+02)
 number of electron     368.0000019 magnetization 
 augmentation part       44.0036292 magnetization 

 Broyden mixing:
  rms(total) = 0.62392E+01    rms(broyden)= 0.62392E+01
  rms(prec ) = 0.68195E+01
  weight for this iteration     100.00

 Free energy of the ion-electron system (eV)
  ---------------------------------------------------
  alpha Z        PSCENC =       552.32592117
  Ewald energy   TEWEN  =     76360.02951423
  -Hartree energ DENC   =    -95969.34017315
  -exchange      EXHF   =         0.00000000
  -V(xc)+E(xc)   XCENC  =     -2977.27801182
  PAW double counting   =     20825.47903073   -16741.43993414
  entropy T*S    EENTRO =         0.00316797
  eigenvalues    EBANDS =     -4530.06644018
  atomic energy  EATOM  =     21855.45048279
  Solvation  Ediel_sol  =         0.00000000
  ---------------------------------------------------
  free energy    TOTEN  =      -624.83644240 eV

  energy without entropy =     -624.83961036  energy(sigma->0) =     -624.83723439


--------------------------------------------------------------------------------------------------------




----------------------------------------- Iteration    1(   6)  ---------------------------------------


    POTLOK:  cpu time    0.0546: real time    0.0546
    SETDIJ:  cpu time    0.0063: real time    0.0063
    EDDIAG:  cpu time    0.8182: real time    0.8214
  RMM-DIIS:  cpu time    9.1467: real time    9.1470
    ORTHCH:  cpu time    0.2283: real time    0.2293
       DOS:  cpu time    0.0013: real time    0.0013
    CHARGE:  cpu time    0.2027: real time    0.2027
    MIXING:  cpu time    0.0035: real time    0.0065
    --------------------------------------------
      LOOP:  cpu time   10.4637: real time   10.4737

 eigenvalue-minimisations  :  3619
 total energy-change (2. order) :-0.4536894E+02  (-0.1467970E+03)
 number of electron     368.0000011 magnetization 
 augmentation part       59.4126907 magnetization 

 Broyden mixing:
  rms(total) = 0.42327E+01    rms(broyden)= 0.42326E+01
  rms(prec ) = 0.54706E+01
  weight for this iteration     100.00

 eigenvalues of (default mixing * dielectric matrix)
  average eigenvalue GAMMA=   0.7227
  0.7227

 Free energy of the ion-electron system (eV)
  ---------------------------------------------------
  alpha Z        PSCENC =       552.32592117
  Ewald energy   TEWEN  =     76360.02951423
  -Hartree energ DENC   =    -96688.75768972
  -exchange      EXHF   =         0.00000000
  -V(xc)+E(xc)   XCENC  =     -2961.20385682
  PAW double counting   =     24557.43212144   -20474.29702495
  entropy T*S    EENTRO =        -0.00981338
  eigenvalues    EBANDS =     -3871.17503335
  atomic energy  EATOM  =     21855.45048279
  Solvation  Ediel_sol  =         0.00000000
  ---------------------------------------------------
  free energy    TOTEN  =      -670.20537859 eV

  energy without entropy =     -670.19556521  energy(sigma->0) =     -670.20292525


--------------------------------------------------------------------------------------------------------




----------------------------------------- Iteration    1(   7)  ---------------------------------------


    POTLOK:  cpu time    0.0491: real time    0.0491
    SETDIJ:  cpu time    0.0065: real time    0.0065
    EDDIAG:  cpu time    0.8209: real time    0.8259
  RMM-DIIS:  cpu time    6.1402: real time    6.1402
    ORTHCH:  cpu time    0.2280: real time    0.2296
       DOS:  cpu time    0.0014: real time    0.0014
    CHARGE:  cpu time    0.2028: real time    0.2028
    MIXING:  cpu time    0.0020: real time    0.0025
    --------------------------------------------
      LOOP:  cpu time    7.4523: real time    7.4621

 eigenvalue-minimisations  :  2412
 total energy-change (2. order) : 0.9294145E+02  (-0.3296110E+02)
 number of electron     368.0000016 magnetization 
 augmentation part       51.4664086 magnetization 

 Broyden mixing:
  rms(total) = 0.30965E+01    rms(broyden)= 0.30965E+01
  rms(prec ) = 0.44409E+01
  weight for this iteration     100.00

 eigenvalues of (default mixing * dielectric matrix)
  average eigenvalue GAMMA=   0.7239
  1.0889  0.3589

 Free energy of the ion-electron system (eV)
  ---------------------------------------------------
  alpha Z        PSCENC =       552.32592117
  Ewald energy   TEWEN  =     76360.02951423
  -Hartree energ DENC   =    -96284.42802046
  -exchange      EXHF   =         0.00000000
  -V(xc)+E(xc)   XCENC  =     -2963.12659804
  PAW double counting   =     24981.44445885   -20911.08057300
  entropy T*S    EENTRO =         0.00099734
  eigenvalues    EBANDS =     -4167.88010681
  atomic energy  EATOM  =     21855.45048279
  Solvation  Ediel_sol  =         0.00000000
  ---------------------------------------------------
  free energy    TOTEN  =      -577.26392391 eV

  energy without entropy =     -577.26492125  energy(sigma->0) =     -577.26417325


--------------------------------------------------------------------------------------------------------




----------------------------------------- Iteration    1(   8)  ---------------------------------------


    POTLOK:  cpu time    0.0493: real time    0.0493
    SETDIJ:  cpu time    0.0062: real time    0.0062
    EDDIAG:  cpu time    0.8166: real time    0.8217
  RMM-DIIS:  cpu time    8.6857: real time    8.6858
    ORTHCH:  cpu time    0.2245: real time    0.2288
       DOS:  cpu time    0.0014: real time    0.0014
    CHARGE:  cpu time    0.2029: real time    0.2029
    MIXING:  cpu time    0.0021: real time    0.0027
    --------------------------------------------
      LOOP:  cpu time    9.9902: real time   10.0028

 eigenvalue-minimisations  :  3428
 total energy-change (2. order) :-0.3006180E+02  (-0.1855768E+02)
 number of electron     368.0000016 magnetization 
 augmentation part       50.7635483 magnetization 

 Broyden mixing:
  rms(total) = 0.30526E+01    rms(broyden)= 0.30526E+01
  rms(prec ) = 0.58075E+01
  weight for this iteration     100.00

 eigenvalues of (default mixing * dielectric matrix)
  average eigenvalue GAMMA=   0.6454
  1.2869  0.3960  0.2534

 Free energy of the ion-electron system (eV)
  ---------------------------------------------------
  alpha Z        PSCENC =       552.32592117
  Ewald energy   TEWEN  =     76360.02951423
  -Hartree energ DENC   =    -96368.33304157
  -exchange      EXHF   =         0.00000000
  -V(xc)+E(xc)   XCENC  =     -2962.13320584
  PAW double counting   =     25765.82535041   -21696.73336175
  entropy T*S    EENTRO =        -0.00660281
  eigenvalues    EBANDS =     -4113.75077572
  atomic energy  EATOM  =     21855.45048279
  Solvation  Ediel_sol  =         0.00000000
  ---------------------------------------------------
  free energy    TOTEN  =      -607.32571907 eV

  energy without entropy =     -607.31911627  energy(sigma->0) =     -607.32406837


--------------------------------------------------------------------------------------------------------




----------------------------------------- Iteration    1(   9)  ---------------------------------------


    POTLOK:  cpu time    0.0493: real time    0.0493
    SETDIJ:  cpu time    0.0063: real time    0.0063
    EDDIAG:  cpu time    0.8265: real time    0.8281
  RMM-DIIS:  cpu time    8.8551: real time    8.8551
    ORTHCH:  cpu time    0.2283: real time    0.2294
       DOS:  cpu time    0.0014: real time    0.0014
    CHARGE:  cpu time    0.2028: real time    0.2028
    MIXING:  cpu time    0.0020: real time    0.0020
    --------------------------------------------
      LOOP:  cpu time   10.1730: real time   10.1783

 eigenvalue-minimisations  :  3485
 total energy-change (2. order) : 0.5013354E+02  (-0.6579643E+01)
 number of electron     368.0000014 magnetization 
 augmentation part       48.9616822 magnetization 

 Broyden mixing:
  rms(total) = 0.17719E+01    rms(broyden)= 0.17719E+01
  rms(prec ) = 0.22248E+01
  weight for this iteration     100.00

 eigenvalues of (default mixing * dielectric matrix)
  average eigenvalue GAMMA=   0.6313
  1.5201  0.4171  0.4171  0.1708

 Free energy of the ion-electron system (eV)
  ---------------------------------------------------
  alpha Z        PSCENC =       552.32592117
  Ewald energy   TEWEN  =     76360.02951423
  -Hartree energ DENC   =    -96406.23386139
  -exchange      EXHF   =         0.00000000
  -V(xc)+E(xc)   XCENC  =     -2960.22585841
  PAW double counting   =     26282.22452187   -22210.82286144
  entropy T*S    EENTRO =         0.00091399
  eigenvalues    EBANDS =     -4029.94094821
  atomic energy  EATOM  =     21855.45048279
  Solvation  Ediel_sol  =         0.00000000
  ---------------------------------------------------
  free energy    TOTEN  =      -557.19217539 eV

  energy without entropy =     -557.19308937  energy(sigma->0) =     -557.19240389


--------------------------------------------------------------------------------------------------------




----------------------------------------- Iteration    1(  10)  ---------------------------------------


    POTLOK:  cpu time    0.0492: real time    0.0492
    SETDIJ:  cpu time    0.0062: real time    0.0062
    EDDIAG:  cpu time    0.8290: real time    0.8306
  RMM-DIIS:  cpu time    8.2513: real time    8.2513
    ORTHCH:  cpu time    0.2241: real time    0.2290
       DOS:  cpu time    0.0015: real time    0.0015
    CHARGE:  cpu time    0.2048: real time    0.2048
    MIXING:  cpu time    0.0022: real time    0.0022
    --------------------------------------------
      LOOP:  cpu time    9.5700: real time    9.5791

 eigenvalue-minimisations  :  3238
 total energy-change (2. order) : 0.8238306E+01  (-0.2751711E+01)
 number of electron     368.0000015 magnetization 
 augmentation part       50.7983367 magnetization 

 Broyden mixing:
  rms(total) = 0.98798E+00    rms(broyden)= 0.98798E+00
  rms(prec ) = 0.11575E+01
  weight for this iteration     100.00

 eigenvalues of (default mixing * dielectric matrix)
  average eigenvalue GAMMA=   0.6463
  1.6093  0.5673  0.5673  0.3141  0.1736

 Free energy of the ion-electron system (eV)
  ---------------------------------------------------
  alpha Z        PSCENC =       552.32592117
  Ewald energy   TEWEN  =     76360.02951423
  -Hartree energ DENC   =    -96458.52938719
  -exchange      EXHF   =         0.00000000
  -V(xc)+E(xc)   XCENC  =     -2956.67113124
  PAW double counting   =     26881.89382443   -22805.11688931
  entropy T*S    EENTRO =        -0.00203485
  eigenvalues    EBANDS =     -3978.33416924
  atomic energy  EATOM  =     21855.45048279
  Solvation  Ediel_sol  =         0.00000000
  ---------------------------------------------------
  free energy    TOTEN  =      -548.95386921 eV

  energy without entropy =     -548.95183436  energy(sigma->0) =     -548.95336049


--------------------------------------------------------------------------------------------------------




----------------------------------------- Iteration    1(  11)  ---------------------------------------


    POTLOK:  cpu time    0.0496: real time    0.0496
    SETDIJ:  cpu time    0.0062: real time    0.0062
    EDDIAG:  cpu time    0.8277: real time    0.8303
  RMM-DIIS:  cpu time    8.8452: real time    8.8452
    ORTHCH:  cpu time    0.2052: real time    0.2292
       DOS:  cpu time    0.0014: real time    0.0014
    CHARGE:  cpu time    0.2050: real time    0.2050
    MIXING:  cpu time    0.0022: real time    0.0022
    --------------------------------------------
      LOOP:  cpu time   10.1439: real time   10.1731

 eigenvalue-minimisations  :  3513
 total energy-change (2. order) :-0.4154246E+00  (-0.2085990E+01)
 number of electron     368.0000014 magnetization 
 augmentation part       52.1157154 magnetization 

 Broyden mixing:
  rms(total) = 0.90867E+00    rms(broyden)= 0.90867E+00
  rms(prec ) = 0.11937E+01
  weight for this iteration     100.00

 eigenvalues of (default mixing * dielectric matrix)
  average eigenvalue GAMMA=   0.6383
  1.6187  0.7219  0.7219  0.1697  0.3330  0.2647

 Free energy of the ion-electron system (eV)
  ---------------------------------------------------
  alpha Z        PSCENC =       552.32592117
  Ewald energy   TEWEN  =     76360.02951423
  -Hartree energ DENC   =    -96476.34712502
  -exchange      EXHF   =         0.00000000
  -V(xc)+E(xc)   XCENC  =     -2954.86935867
  PAW double counting   =     27232.44101266   -23151.89369207
  entropy T*S    EENTRO =        -0.00755476
  eigenvalues    EBANDS =     -3966.49849413
  atomic energy  EATOM  =     21855.45048279
  Solvation  Ediel_sol  =         0.00000000
  ---------------------------------------------------
  free energy    TOTEN  =      -549.36929380 eV

  energy without entropy =     -549.36173904  energy(sigma->0) =     -549.36740511


--------------------------------------------------------------------------------------------------------




----------------------------------------- Iteration    1(  12)  ---------------------------------------


    POTLOK:  cpu time    0.0495: real time    0.0495
    SETDIJ:  cpu time    0.0062: real time    0.0062
    EDDIAG:  cpu time    0.8241: real time    0.8261
  RMM-DIIS:  cpu time    9.0242: real time    9.0242
    ORTHCH:  cpu time    0.2279: real time    0.2296
       DOS:  cpu time    0.0015: real time    0.0015
    CHARGE:  cpu time    0.2030: real time    0.2030
    MIXING:  cpu time    0.0023: real time    0.0023
    --------------------------------------------
      LOOP:  cpu time   10.3401: real time   10.3463

 eigenvalue-minimisations  :  3546
 total energy-change (2. order) : 0.1566904E+01  (-0.8494628E+00)
 number of electron     368.0000015 magnetization 
 augmentation part       51.9117489 magnetization 

 Broyden mixing:
  rms(total) = 0.50570E+00    rms(broyden)= 0.50570E+00
  rms(prec ) = 0.66034E+00
  weight for this iteration     100.00

 eigenvalues of (default mixing * dielectric matrix)
  average eigenvalue GAMMA=   0.6593
  1.7129  1.1092  0.5218  0.5218  0.3472  0.1716  0.2305

 Free energy of the ion-electron system (eV)
  ---------------------------------------------------
  alpha Z        PSCENC =       552.32592117
  Ewald energy   TEWEN  =     76360.02951423
  -Hartree energ DENC   =    -96510.26274630
  -exchange      EXHF   =         0.00000000
  -V(xc)+E(xc)   XCENC  =     -2953.72765738
  PAW double counting   =     27487.40165468   -23404.02483745
  entropy T*S    EENTRO =        -0.01018748
  eigenvalues    EBANDS =     -3934.98453452
  atomic energy  EATOM  =     21855.45048279
  Solvation  Ediel_sol  =         0.00000000
  ---------------------------------------------------
  free energy    TOTEN  =      -547.80239025 eV

  energy without entropy =     -547.79220276  energy(sigma->0) =     -547.79984338


--------------------------------------------------------------------------------------------------------




----------------------------------------- Iteration    1(  13)  ---------------------------------------


    POTLOK:  cpu time    0.0495: real time    0.0495
    SETDIJ:  cpu time    0.0061: real time    0.0061
    EDDIAG:  cpu time    0.8235: real time    0.8294
  RMM-DIIS:  cpu time    8.9845: real time    8.9845
    ORTHCH:  cpu time    0.2277: real time    0.2291
       DOS:  cpu time    0.0015: real time    0.0015
    CHARGE:  cpu time    0.2028: real time    0.2028
    MIXING:  cpu time    0.0025: real time    0.0025
    --------------------------------------------
      LOOP:  cpu time   10.2997: real time   10.3096

 eigenvalue-minimisations  :  3563
 total energy-change (2. order) : 0.8142406E-01  (-0.5436361E+00)
 number of electron     368.0000014 magnetization 
 augmentation part       52.3167184 magnetization 

 Broyden mixing:
[...]
    STRESS:  cpu time    7.4676: real time    7.4676
    FORCOR:  cpu time    0.0745: real time    0.0745
    FORHAR:  cpu time    0.0327: real time    0.0327
    MIXING:  cpu time    0.0017: real time    0.0017
    OFIELD:  cpu time    0.0000: real time    0.0000

  FORCE on cell =-STRESS in cart. coord.  units (eV):
  Direction    XX          YY          ZZ          XY          YZ          ZX
  --------------------------------------------------------------------------------------
  Alpha Z   552.32592   552.32592   552.32592
  Ewald   83754.42684 88084.96429-95478.36806  -843.46829   -92.50239   514.23011
  Hartree 88482.54556 92621.32918-84497.10519  -668.33771   -88.77068   512.91167
  E(xc)   -1563.63442 -1565.00455 -1552.82352    -0.00213    -0.95217     0.32423
  Local  ************************176036.63630  1508.95626   182.72070 -1029.80712
  n-local  -103.56554  -104.61124  -143.73513     9.84434    -1.25168     2.42081
  augment   461.44357   462.32494   457.62435    -1.51379     0.18521    -0.12361
  Kinetic  4585.96024  4572.30737  4609.27610   -10.06105     6.09136    -1.05918
  Fock        0.00000     0.00000     0.00000     0.00000     0.00000     0.00000
  -------------------------------------------------------------------------------------
  Total     -35.06035   -31.62544   -16.16924    -4.58236     5.52035    -1.10309
  in kB     -15.41687   -13.90646    -7.11000    -2.01497     2.42743    -0.48505
  external pressure =      -12.14 kB  Pullay stress =        0.00 kB


 VOLUME and BASIS-vectors are now :
 -----------------------------------------------------------------------------
  energy-cutoff  :      600.00
  volume of cell :     3643.60
      direct lattice vectors                 reciprocal lattice vectors
    13.771350861  0.000000000  0.000000000     0.072614518  0.000000000  0.000000000
     0.000000000  9.564481735  0.000000000     0.000000000  0.104553496  0.000000000
     0.000000000  0.000000000 27.662570434     0.000000000  0.000000000  0.036149931

  length of vectors
    13.771350861  9.564481735 27.662570434     0.072614518  0.104553496  0.036149931


 FORCES acting on ions
    electron-ion (+dipol)            ewald-force                    non-local-force                 convergence-correction
 -----------------------------------------------------------------------------------------------
   -.464E+02 -.336E+02 0.390E+03   0.461E+02 0.333E+02 -.389E+03   0.107E+00 0.899E-01 -.812E+00   0.373E-01 0.260E-01 -.225E-01
   -.127E+02 -.360E+02 -.123E+03   0.128E+02 0.360E+02 0.123E+03   -.777E-01 0.743E-01 0.463E-01   0.192E-01 -.229E-02 -.343E-01
   0.414E+02 0.233E+02 -.371E+03   -.408E+02 -.228E+02 0.370E+03   -.548E+00 -.464E+00 0.978E+00   0.107E-01 -.413E-02 -.940E-02
   0.231E+01 0.471E+01 0.209E+03   -.247E+01 -.456E+01 -.209E+03   0.945E-01 -.285E+00 -.858E+00   0.431E-01 0.543E-02 -.622E-01
   -.624E+02 0.700E+01 -.722E+02   0.622E+02 -.663E+01 0.718E+02   0.192E+00 -.377E+00 0.415E+00   -.176E-01 0.608E-03 -.275E-01
   -.460E+02 0.460E+01 0.335E+03   0.454E+02 -.404E+01 -.332E+03   0.661E+00 -.990E+00 -.227E+01   -.600E-01 0.487E-02 -.168E-01
   -.367E+03 -.972E+01 0.509E+03   0.367E+03 0.106E+02 -.510E+03   0.171E+00 -.355E+00 0.900E+00   0.778E-01 -.851E-01 -.269E+00
   -.241E+03 0.842E+01 -.161E+04   0.239E+03 -.747E+01 0.161E+04   0.130E+01 -.954E+00 0.348E+01   0.523E-01 0.405E-02 -.781E-01
   0.102E+03 -.822E+01 0.167E+04   -.102E+03 0.719E+01 -.166E+04   -.540E+00 0.594E+00 -.434E+01   0.134E+00 -.127E-01 -.999E-01
   0.166E+03 -.168E+02 -.341E+03   -.166E+03 0.170E+02 0.343E+03   0.124E+00 -.124E+00 -.132E+01   0.100E+00 0.318E-02 -.140E+00
   -.521E+02 0.136E+03 0.174E+04   0.526E+02 -.136E+03 -.174E+04   -.514E+00 -.397E+00 -.281E+01   0.203E+00 -.140E+00 -.991E-01
   0.100E+03 0.136E+03 -.337E+03   -.994E+02 -.136E+03 0.338E+03   -.849E+00 0.106E+00 -.302E+00   0.950E-01 0.937E-02 -.180E+00
   -.410E+03 0.541E+01 0.786E+03   0.411E+03 -.656E+01 -.785E+03   -.792E+00 0.135E+01 -.150E+01   0.479E-01 0.765E-01 -.226E+00
   -.685E+02 -.175E+02 -.146E+04   0.697E+02 0.172E+02 0.146E+04   -.123E+01 0.334E+00 0.300E+01   0.243E-01 -.126E-01 -.663E-01
   0.295E+03 -.114E+03 0.158E+04   -.295E+03 0.114E+03 -.157E+04   0.238E+00 -.363E+00 -.416E+01   0.123E+00 -.333E-02 -.103E+00
   0.325E+03 -.150E+03 -.376E+03   -.325E+03 0.150E+03 0.377E+03   0.165E+00 0.102E+00 -.780E+00   0.686E-01 -.705E-02 -.722E-01
   -.974E+01 0.305E+01 0.197E+03   0.924E+01 -.300E+01 -.197E+03   0.543E+00 -.248E+00 0.605E-01   0.442E-01 -.443E-02 -.694E-01
   -.211E+01 -.428E+02 -.645E+03   0.184E+01 0.424E+02 0.642E+03   0.246E+00 0.443E+00 0.233E+01   0.224E-01 0.709E-02 -.220E-01
   0.170E+03 -.198E+01 0.188E+03   -.169E+03 0.190E+01 -.189E+03   -.144E+01 0.431E+00 0.653E+00   0.234E-02 0.845E-03 -.468E-01
   0.101E+03 -.843E+02 -.568E+03   -.996E+02 0.861E+02 0.564E+03   -.156E+01 -.176E+01 0.358E+01   -.629E-02 -.197E-02 0.169E-02
   0.119E+03 -.562E+02 -.110E+03   -.118E+03 0.559E+02 0.110E+03   -.109E+00 0.266E+00 -.247E+00   -.270E-02 0.232E-02 -.226E-01
   0.116E+03 -.554E+02 0.483E+03   -.115E+03 0.554E+02 -.480E+03   -.832E+00 -.188E+00 -.269E+01   0.116E-01 -.609E-03 -.312E-01
   -.908E+02 0.621E+02 -.127E+03   0.906E+02 -.618E+02 0.127E+03   0.197E+00 -.322E+00 0.323E+00   0.989E-02 -.140E-02 -.500E-01
   -.994E+02 0.596E+02 0.536E+03   0.987E+02 -.591E+02 -.533E+03   0.485E+00 -.524E+00 -.276E+01   0.164E-01 0.131E-01 -.133E-01
   0.801E+02 -.977E+01 0.178E+03   -.812E+02 0.921E+01 -.177E+03   0.953E+00 0.787E+00 -.482E+00   0.392E-01 0.786E-02 -.511E-01
   0.183E+02 -.499E+02 -.532E+03   -.194E+02 0.496E+02 0.529E+03   0.112E+01 0.294E+00 0.239E+01   0.158E-01 0.223E-02 -.635E-02
   -.480E+02 -.396E+01 -.436E+03   0.477E+02 0.368E+01 0.433E+03   0.310E+00 0.280E+00 0.269E+01   -.816E-03 -.878E-03 -.164E-01
   -.162E+03 0.653E+01 0.209E+03   0.161E+03 -.630E+01 -.210E+03   0.326E+00 -.404E+00 0.298E+00   -.341E-01 0.514E-02 -.873E-01
   -.149E+03 -.577E+01 0.494E+03   0.148E+03 0.571E+01 -.491E+03   0.677E+00 -.236E-01 -.254E+01   -.439E-01 -.389E-01 -.265E-01
   -.188E+03 -.588E+01 -.129E+03   0.187E+03 0.591E+01 0.129E+03   0.458E+00 -.435E-01 0.383E+00   -.753E-02 0.660E-02 -.499E-01
   0.822E+02 -.194E+01 0.187E+03   -.825E+02 0.240E+01 -.188E+03   0.605E-01 -.665E-01 -.196E-01   0.490E-01 -.832E-02 -.577E-01
   0.421E+02 0.424E+02 -.520E+03   -.415E+02 -.419E+02 0.518E+03   -.641E+00 -.465E+00 0.216E+01   0.151E-01 -.182E-02 -.908E-02
   0.609E+02 0.147E+01 -.148E+03   -.614E+02 -.133E+01 0.148E+03   0.531E+00 -.133E+00 0.525E+00   0.290E-01 -.358E-03 -.356E-01
   0.354E+02 -.122E+01 0.515E+03   -.362E+02 0.110E+01 -.512E+03   0.606E+00 0.605E-01 -.248E+01   0.713E-01 0.683E-02 -.284E-01
   0.130E+03 0.897E+01 0.172E+03   -.129E+03 -.917E+01 -.172E+03   -.685E+00 0.609E+00 -.330E+00   0.302E-01 0.419E-02 -.465E-01
   0.204E+02 -.221E+02 -.477E+03   -.189E+02 0.236E+02 0.475E+03   -.152E+01 -.152E+01 0.234E+01   0.544E-02 0.431E-02 -.274E-02
   0.123E+03 0.370E+01 0.199E+03   -.123E+03 -.357E+01 -.199E+03   0.921E-02 -.156E+00 -.485E+00   -.700E-02 -.265E-02 -.386E-01
   0.114E+03 0.667E+02 -.410E+03   -.115E+03 -.678E+02 0.408E+03   0.122E+01 0.113E+01 0.206E+01   -.827E-02 0.245E-02 0.162E-02
   0.125E+03 0.394E+02 0.440E+03   -.125E+03 -.391E+02 -.437E+03   0.125E+00 -.483E+00 -.281E+01   -.351E-02 0.971E-03 -.375E-01
   0.126E+03 0.303E+02 -.727E+02   -.126E+03 -.299E+02 0.724E+02   -.221E+00 -.378E+00 0.321E+00   -.933E-02 -.111E-02 -.228E-01
   -.981E+02 -.101E+01 0.502E+03   0.985E+02 0.934E+00 -.498E+03   -.495E+00 0.766E-01 -.307E+01   -.396E-01 0.308E-01 -.187E-01
   -.139E+03 0.388E+01 -.964E+02   0.139E+03 -.391E+01 0.969E+02   0.363E+00 0.334E-01 -.463E+00   -.123E-01 -.697E-02 -.499E-01
   0.129E+03 0.278E+02 0.467E+03   -.129E+03 -.281E+02 -.465E+03   -.204E+00 0.326E+00 -.251E+01   0.380E-01 -.762E-03 -.387E-01
   0.132E+03 0.413E+02 -.105E+03   -.131E+03 -.411E+02 0.104E+03   -.615E+00 -.183E+00 0.820E+00   0.119E-01 0.167E-02 -.321E-01
   0.522E+02 0.341E+02 -.477E+03   -.532E+02 -.351E+02 0.473E+03   0.918E+00 0.950E+00 0.365E+01   0.756E-02 -.303E-02 0.218E-02
   0.125E+03 -.482E+01 0.219E+03   -.125E+03 0.452E+01 -.219E+03   0.303E+00 0.131E+00 -.359E-01   0.329E-01 -.391E-02 -.429E-01
   0.300E+02 0.242E+01 0.160E+03   -.297E+02 -.240E+01 -.161E+03   -.374E-01 -.108E+00 0.305E+00   -.356E-01 0.348E-02 -.415E-01
   0.423E+01 0.168E+02 -.396E+03   -.548E+01 -.165E+02 0.394E+03   0.127E+01 -.318E+00 0.227E+01   -.147E-01 0.227E-02 -.123E-02
   -.414E+02 -.156E+00 0.455E+03   0.417E+02 0.542E+00 -.452E+03   -.705E-01 -.262E+00 -.283E+01   -.469E-01 -.675E-02 -.241E-01
   -.623E+02 -.266E+01 -.883E+02   0.622E+02 0.240E+01 0.886E+02   0.613E-01 0.258E+00 -.268E+00   -.311E-01 0.129E-03 -.436E-01
   0.503E+02 -.257E+01 0.434E+03   -.503E+02 0.191E+01 -.431E+03   0.150E-01 0.199E+00 -.303E+01   -.395E-01 -.249E-02 -.275E-01
   0.342E+02 -.624E+01 -.112E+03   -.339E+02 0.605E+01 0.113E+03   -.324E+00 0.196E+00 -.641E+00   -.273E-01 -.301E-02 -.234E-01
   -.710E+02 -.336E+01 0.196E+03   0.711E+02 0.359E+01 -.196E+03   0.603E-01 0.156E+00 0.843E-01   -.559E-01 -.953E-02 -.538E-01
   -.605E+02 -.465E+02 -.383E+03   0.610E+02 0.454E+02 0.381E+03   -.506E+00 0.106E+01 0.245E+01   -.157E-01 0.129E-02 -.114E-01
   0.393E+02 0.641E+00 0.450E+03   -.386E+02 -.505E+00 -.446E+03   -.817E+00 -.297E+00 -.321E+01   -.375E-01 0.406E-02 -.315E-01
   0.244E+02 0.191E+01 -.869E+02   -.239E+02 -.186E+01 0.875E+02   -.511E+00 -.493E-01 -.505E+00   -.253E-01 0.224E-02 -.311E-01
   -.957E+02 0.614E+00 0.169E+03   0.954E+02 -.866E+00 -.169E+03   0.474E+00 0.314E+00 0.785E-01   -.449E-01 0.111E-01 -.513E-01
   -.694E+02 -.558E+01 -.414E+03   0.685E+02 0.475E+01 0.412E+03   0.901E+00 0.833E+00 0.216E+01   -.957E-02 -.208E-02 -.655E-02
   -.262E+02 -.474E+00 -.385E+03   0.272E+02 0.986E+00 0.382E+03   -.977E+00 -.508E+00 0.279E+01   -.159E-01 -.310E-02 -.169E-02
   0.490E+02 -.544E+01 0.201E+03   -.482E+02 0.536E+01 -.201E+03   -.660E+00 0.390E+00 -.129E+00   -.376E-01 -.264E-02 -.348E-01
   -.140E+03 -.427E+02 0.532E+03   0.139E+03 0.421E+02 -.528E+03   0.858E+00 0.331E-01 -.325E+01   0.161E-01 -.106E-01 -.195E-01
   -.138E+03 -.438E+02 -.108E+03   0.138E+03 0.433E+02 0.109E+03   0.285E+00 0.521E+00 -.758E+00   0.157E-01 0.105E-02 -.646E-01
   -.154E+03 0.487E+01 0.195E+03   0.153E+03 -.492E+01 -.196E+03   0.680E+00 0.394E+00 0.705E-01   -.211E-01 -.631E-02 -.588E-01
   -.542E+02 0.351E+02 -.422E+03   0.549E+02 -.341E+02 0.420E+03   -.707E+00 -.103E+01 0.235E+01   -.296E-02 0.879E-03 -.159E-01
   0.867E+02 0.789E+02 -.745E+03   -.869E+02 -.799E+02 0.753E+03   0.221E+00 0.101E+01 -.788E+01   0.574E-02 0.267E-03 0.951E-02
   -.543E+02 0.253E+02 -.805E+03   0.532E+02 -.275E+02 0.820E+03   0.113E+01 0.226E+01 -.147E+02   -.152E-01 0.714E-03 0.108E-01
   0.105E+03 -.836E+01 -.711E+03   -.105E+03 0.798E+01 0.720E+03   0.312E+00 0.369E+00 -.818E+01   -.143E-01 0.115E-01 0.113E-01
   -.961E+02 -.242E+02 -.742E+03   0.977E+02 0.260E+02 0.751E+03   -.161E+01 -.188E+01 -.855E+01   -.145E-01 -.345E-03 -.198E-02
 -----------------------------------------------------------------------------------------------
   -.479E+00 -.654E+00 0.510E+02   0.696E-12 -.156E-12 0.421E-11   -.311E+00 0.807E+00 -.480E+02   0.768E+00 -.126E+00 -.297E+01
 
 
 POSITION                                       TOTAL-FORCE (eV/Angst)
 -----------------------------------------------------------------------------------
      8.57631      8.29685     10.39845        -0.094792     -0.163310     -0.005470
      8.57694      3.76094     15.11964        -0.003131      0.000117      0.005810
      8.50606      6.09980     17.33028         0.004206      0.001549     -0.004614
      8.51616      0.79995     12.43874        -0.015471     -0.132696     -0.253615
     13.42680      6.12971     15.23717         0.001785     -0.002172      0.000160
     13.49094      1.15316     10.44749        -0.026519     -0.419813     -0.064903
     10.03344      3.28428     12.67411         0.002627      0.461675     -0.603511
      9.97856      8.60473     17.13800        -0.000207      0.001432     -0.001610
      7.12524      5.81577     10.15765        -0.157071     -0.456749      0.895526
      7.09504      1.26910     14.93937        -0.001190     -0.000247      0.004686
      8.51222      3.28036     10.20450         0.267168      0.055989      0.740147
      8.54859      8.36222     14.85101        -0.001743      0.000144      0.000689
     10.22263      8.06723     12.77991         0.212763      0.276356     -0.601977
     10.24998      3.87654     17.34492         0.002110     -0.000990     -0.003137
      5.42664      8.10481     10.20639         0.276597      0.097232      0.935199
      5.39970      3.51157     15.02955        -0.001690      0.002684      0.005756
      8.52843      5.75423     12.65640         0.085315     -0.208377     -0.056064
      8.63811      1.51899     17.20681        -0.002970      0.000830     -0.002494
      3.84829      7.97317     12.47259        -0.417859      0.352851     -0.443254
      3.85301      3.53731     17.18976         0.003983      0.000249     -0.000253
      3.84439      5.64649     15.01040         0.000432     -0.001086     -0.002879
      3.90063      0.73891     10.00000         0.517705     -0.149540      0.325977
     10.17543      6.05142     14.96360         0.002742     -0.001202     -0.001237
     10.19112      1.10470     10.13736        -0.208321      0.015129      0.357965
      6.82945      7.99424     12.66670        -0.130905      0.242039     -0.356850
      6.84412      3.61737     17.31613        -0.004936     -0.001305     -0.000755
     11.48730      6.31245     17.42816        -0.000735     -0.001270      0.000765
     11.66772      1.05372     12.57547        -0.106471     -0.167800     -0.680768
     11.73919      3.33868     10.41199        -0.286827     -0.122578      0.600130
     11.74258      8.30951     15.26425         0.000941     -0.001130      0.001064
      7.18522      3.24644     12.75390        -0.167464      0.387039     -0.498621
      7.28098      8.56597     17.23758        -0.002141      0.001029     -0.000661
      6.85781      5.96354     14.94101        -0.001048      0.001417      0.000699
      6.87795      0.97560     10.08695        -0.077578     -0.048849      0.157122
      5.51084      5.55012     12.48419         0.005438      0.408705     -0.166309
      5.48274      1.11983     17.20676         0.002556     -0.000060     -0.001918
      3.51249      3.50019     12.83519        -0.100825     -0.029219     -0.403468
      3.29053      8.77808     17.37519         0.000924     -0.000050     -0.001429
      3.46798      5.87237     10.40868         0.034518     -0.237591     -0.076353
      3.37773      1.27039     15.18270         0.000846     -0.001863     -0.000171
     11.91771      8.21633     10.24534        -0.211251      0.029832      0.655859
     11.91273      3.66348     15.09407        -0.000219     -0.000164      0.000331
      5.24135      3.36543     10.32679         0.177719      0.085861      0.183696
      5.17452      8.33814     15.12713        -0.000299      0.000743      0.001902
      5.31422      6.22245     17.43410        -0.000317     -0.001899     -0.003647
      5.28930      0.99064     12.60849        -0.002332     -0.175257     -0.254842
      1.60538      5.84491     12.85122         0.186905     -0.088864     -0.417954
      1.37095      1.66494     17.67548         0.000307     -0.001017     -0.003385
     13.72038      5.67134     10.18293         0.213777      0.116851      0.623473
     13.69243      1.07626     15.04619         0.001348     -0.000294     -0.000627
      1.63456      8.33987     10.36453        -0.012495     -0.466130      0.193337
      1.53988      3.78161     15.29320         0.000726     -0.002113     -0.000603
     13.76831      3.16119     12.53308         0.129770      0.375618     -0.343977
     13.74991      8.33984     17.37446         0.000279     -0.002291      0.000251
      1.99440      3.17314     10.17666        -0.093900     -0.156367      0.718504
      1.83207      8.05250     15.02655         0.000417      0.000519      0.002044
     13.48051      8.37930     12.86886         0.067779      0.073383     -0.352239
     13.28426      4.20677     17.83296        -0.000550      0.001270     -0.001871
      1.97382      6.02074     17.31270         0.002162      0.000094     -0.003494
      2.02729      0.87737     12.46815         0.031703      0.301517     -0.458970
     10.07171      5.79402     10.14663         0.141801     -0.588991      0.171112
     10.15053      1.24691     14.88688        -0.001598      0.000178      0.001293
     11.97051      5.66181     12.67660        -0.245236      0.341675     -0.506488
     11.88178      1.41938     17.58127         0.000310     -0.000802     -0.000528
      5.30061      8.54195     17.55342        -0.000172      0.000186      0.000051
     13.46797      2.32165     18.71127         0.000683     -0.000946     -0.001847
      3.51099      1.33552     17.62193        -0.000286      0.000012     -0.000200
     13.49327      6.33396     18.15397         0.000209     -0.001171     -0.000554
 -----------------------------------------------------------------------------------
    total drift:                               -0.021575      0.026233      0.025444


--------------------------------------------------------------------------------------------------------



  FREE ENERGIE OF THE ION-ELECTRON SYSTEM (eV)
  ---------------------------------------------------
  free  energy   TOTEN  =      -547.30111817 eV

  energy  without entropy=     -547.30215967  energy(sigma->0) =     -547.30137855
 
 d Force = 0.4622692E-05[ 0.394E-05, 0.531E-05]  d Energy = 0.2839527E-04-0.238E-04
 d Force =-0.8965787E-01[-0.897E-01,-0.897E-01]  d Ewald  =-0.8965787E-01 0.189E-09


--------------------------------------------------------------------------------------------------------


    POTLOK:  cpu time    0.0604: real time    0.0604


--------------------------------------------------------------------------------------------------------


 Conjugate gradient step on ions:
 trial-energy change:   -0.000028  1 .order   -0.000005   -0.000005   -0.000004
  (g-gl).g = 0.155E-04      g.g   = 0.121E-04  gl.gl    = 0.808E-05
 g(Force)  = 0.121E-04   g(Stress)= 0.000E+00 ortho     =-0.175E-06
 gamma     =   1.91363
 trial     =   0.45195
 opt step  =   1.75392  (harmonic =   1.75392) maximal distance =0.00061656
 next E    =  -547.301100   (d E  =  -0.00001)


--------------------------------------------------------------------------------------------------------


  
 reached required accuracy - stopping structural energy minimisation
     LOOP+:  cpu time   27.5137: real time   27.5554
    4ORBIT:  cpu time    0.0000: real time    0.0000

 total amount of memory used by VASP on root node    77578. kBytes
========================================================================

   base      :      30000. kBytes
   nonl-proj :      13714. kBytes
   fftplans  :       3278. kBytes
   grid      :       7939. kBytes
   one-center:         31. kBytes
   wavefun   :      22616. kBytes
 
  
  
 General timing and accounting informations for this job:
 ========================================================
  
                  Total CPU time used (sec):      550.787
                            User time (sec):      540.115
                          System time (sec):       10.672
                         Elapsed time (sec):      551.503
  
                   Maximum memory used (kb):      156812.
                   Average memory used (kb):           0.
  
                          Minor page faults:        41126
                          Major page faults:            0
                 Voluntary context switches:         5751
