 vasp.5.4.1 05Feb16 (build Mar 19 2020 08:54:17) complex                        
  
 executed on           IFC91_ompi date 2021.11.07  23:37:04
 running on   48 total cores
 distrk:  each k-point on   48 cores,    1 groups
 distr:  one band on NCORES_PER_BAND=  24 cores,    2 groups


--------------------------------------------------------------------------------------------------------


 INCAR:
 POTCAR:    PAW_PBE Al 04Jan2001                  
 POTCAR:    PAW_PBE Nb_sv 25May2007               
 POTCAR:    PAW_PBE Ta 17Jan2003                  
 POTCAR:    PAW_PBE Ti 08Apr2002                  
 POTCAR:   PAW_PBE Zr 08Apr2002                   
 POTCAR:    PAW_PBE O 08Apr2002                   

 ----------------------------------------------------------------------------- 
|                                                                             |
|           W    W    AA    RRRRR   N    N  II  N    N   GGGG   !!!           |
|           W    W   A  A   R    R  NN   N  II  NN   N  G    G  !!!           |
|           W    W  A    A  R    R  N N  N  II  N N  N  G       !!!           |
|           W WW W  AAAAAA  RRRRR   N  N N  II  N  N N  G  GGG   !            |
|           WW  WW  A    A  R   R   N   NN  II  N   NN  G    G                |
|           W    W  A    A  R    R  N    N  II  N    N   GGGG   !!!           |
|                                                                             |
|      For optimal performance we recommend to set                            |
|        NCORE= 4 - approx SQRT( number of cores)                             |
|      NCORE specifies how many cores store one orbital (NPAR=cpu/NCORE).     |
|      This setting can  greatly improve the performance of VASP for DFT.     |
|      The default, NPAR=number of cores might be grossly inefficient         |
|      on modern multi-core architectures or massively parallel machines.     |
|      Do your own testing !!!!                                               |
|      Unfortunately you need to use the default for GW and RPA calculations. |
|      (for HF NCORE is supported but not extensively tested yet)             |
|                                                                             |
 ----------------------------------------------------------------------------- 

 POTCAR:    PAW_PBE Al 04Jan2001                  
   VRHFIN =Al: s2p1                                                             
   LEXCH  = PE                                                                  
   EATOM  =    53.5387 eV,    3.9350 Ry                                         
                                                                                
   TITEL  = PAW_PBE Al 04Jan2001                                                
   LULTRA =        F    use ultrasoft PP ?                                      
   IUNSCR =        1    unscreen: 0-lin 1-nonlin 2-no                           
   RPACOR =    1.500    partial core radius                                     
   POMASS =   26.981; ZVAL   =    3.000    mass and valenz                      
   RCORE  =    1.900    outmost cutoff radius                                   
   RWIGS  =    2.650; RWIGS  =    1.402    wigner-seitz radius (au A)           
   ENMAX  =  240.300; ENMIN  =  180.225 eV                                      
   ICORE  =        2    local potential                                         
   LCOR   =        T    correct aug charges                                     
   LPAW   =        T    paw PP                                                  
   EAUG   =  291.052                                                            
   DEXC   =    0.000                                                            
   RMAX   =    1.939    core radius for proj-oper                               
   RAUG   =    1.300    factor for augmentation sphere                          
   RDEP   =    1.966    radius for radial grids                                 
   RDEPT  =    1.856    core radius for aug-charge                              
                                                                                
   Atomic configuration                                                         
    6 entries                                                                   
     n  l   j            E        occ.                                          
     1  0  0.50     -1511.1048   2.0000                                         
     2  0  0.50      -108.1629   2.0000                                         
     2  1  1.50       -69.6402   6.0000                                         
     3  0  0.50        -7.7528   2.0000                                         
     3  1  1.50        -2.7121   1.0000                                         
     3  2  2.50        -2.7212   0.0000                                         
   Description                                                                  
     l       E           TYP  RCUT    TYP  RCUT                                 
     0     -7.7528455     23  1.900                                             
     0     -3.3096929     23  1.900                                             
     1     -2.7120682     23  1.900                                             
     1     13.6058260     23  1.900                                             
     2     -2.7211652      7  1.900                                             
  local pseudopotential read in
  partial core-charges read in
  partial kinetic energy density read in
  atomic valenz-charges read in
  non local Contribution for L=           0  read in
    real space projection operators read in
  non local Contribution for L=           0  read in
    real space projection operators read in
  non local Contribution for L=           1  read in
    real space projection operators read in
  non local Contribution for L=           1  read in
    real space projection operators read in
    PAW grid and wavefunctions read in
 
   number of l-projection  operators is LMAX  =           4
   number of lm-projection operators is LMMAX =           8
 
 POTCAR:    PAW_PBE Nb_sv 25May2007               
   VRHFIN =Nb: 4p5s4d                                                           
   LEXCH  = PE                                                                  
   EATOM  =  1555.1913 eV,  114.3033 Ry                                         
                                                                                
   TITEL  = PAW_PBE Nb_sv 25May2007                                             
   LULTRA =        F    use ultrasoft PP ?                                      
   IUNSCR =        1    unscreen: 0-lin 1-nonlin 2-no                           
   RPACOR =    1.800    partial core radius                                     
   POMASS =   92.910; ZVAL   =   13.000    mass and valenz                      
   RCORE  =    2.400    outmost cutoff radius                                   
   RWIGS  =    2.400; RWIGS  =    1.270    wigner-seitz radius (au A)           
   ENMAX  =  293.235; ENMIN  =  219.927 eV                                      
   ICORE  =        3    local potential                                         
   LCOR   =        T    correct aug charges                                     
   LPAW   =        T    paw PP                                                  
   EAUG   =  455.659                                                            
   DEXC   =    0.000                                                            
   RMAX   =    2.456    core radius for proj-oper                               
   RAUG   =    1.300    factor for augmentation sphere                          
   RDEP   =    2.451    radius for radial grids                                 
   RDEPT  =    1.956    core radius for aug-charge                              
                                                                                
   Atomic configuration                                                         
   11 entries                                                                   
     n  l   j            E        occ.                                          
     1  0  0.50    -18805.2457   2.0000                                         
     2  0  0.50     -2630.2869   2.0000                                         
     2  1  1.50     -2348.4046   6.0000                                         
     3  0  0.50      -438.8757   2.0000                                         
     3  1  1.50      -346.7588   6.0000                                         
     3  2  2.50      -196.2560  10.0000                                         
     4  0  0.50       -58.3859   2.0000                                         
     5  0  0.50        -3.9816   1.0000                                         
     4  1  1.50       -34.5141   6.0000                                         
     4  2  2.50        -3.0408   4.0000                                         
     4  3  2.50        -1.3606   0.0000                                         
   Description                                                                  
     l       E           TYP  RCUT    TYP  RCUT                                 
     0    -58.3859094     23  2.200                                             
     0     -3.9816262     23  2.200                                             
     1    -34.5140738     23  2.200                                             
     1     13.6058260     23  2.200                                             
     2     -3.0408010     23  2.200                                             
     2     -0.1283038     23  2.200                                             
     3     -1.3605826     23  2.400                                             
  local pseudopotential read in
  partial core-charges read in
  partial kinetic energy density read in
  atomic valenz-charges read in
  non local Contribution for L=           0  read in
    real space projection operators read in
  non local Contribution for L=           0  read in
    real space projection operators read in
  non local Contribution for L=           1  read in
    real space projection operators read in
  non local Contribution for L=           1  read in
    real space projection operators read in
  non local Contribution for L=           2  read in
    real space projection operators read in
  non local Contribution for L=           2  read in
    real space projection operators read in
    PAW grid and wavefunctions read in
 
   number of l-projection  operators is LMAX  =           6
   number of lm-projection operators is LMMAX =          18
 
 POTCAR:    PAW_PBE Ta 17Jan2003                  
   VRHFIN =Ta:  6s5d                                                            
   LEXCH  = PE                                                                  
   EATOM  =   130.6506 eV,    9.6025 Ry                                         
                                                                                
   TITEL  = PAW_PBE Ta 17Jan2003                                                
   LULTRA =        F    use ultrasoft PP ?                                      
   IUNSCR =        1    unscreen: 0-lin 1-nonlin 2-no                           
   RPACOR =    2.330    partial core radius                                     
   POMASS =  180.948; ZVAL   =    5.000    mass and valenz                      
   RCORE  =    2.900    outmost cutoff radius                                   
   RWIGS  =    2.840; RWIGS  =    1.503    wigner-seitz radius (au A)           
   ENMAX  =  223.667; ENMIN  =  167.750 eV                                      
   RCLOC  =    2.205    cutoff for local pot                                    
   LCOR   =        T    correct aug charges                                     
   LPAW   =        T    paw PP                                                  
   EAUG   =  332.075                                                            
   DEXC   =    0.000                                                            
   RMAX   =    2.970    core radius for proj-oper                               
   RAUG   =    1.300    factor for augmentation sphere                          
   RDEP   =    3.060    radius for radial grids                                 
   RDEPT  =    2.354    core radius for aug-charge                              
                                                                                
   Atomic configuration                                                         
   16 entries                                                                   
     n  l   j            E        occ.                                          
     1  0  0.50    -67341.2807   2.0000                                         
     2  0  0.50    -11566.9376   2.0000                                         
     2  1  1.50    -10134.1182   6.0000                                         
     3  0  0.50     -2648.5620   2.0000                                         
     3  1  1.50     -2222.6012   6.0000                                         
     3  2  2.50     -1726.3120  10.0000                                         
     4  0  0.50      -538.6961   2.0000                                         
     4  1  1.50      -399.0129   6.0000                                         
     4  2  2.50      -220.3959  10.0000                                         
     4  3  3.50       -23.0374  14.0000                                         
     5  0  0.50       -71.2901   2.0000                                         
     5  1  1.50       -37.8225   6.0000                                         
     5  2  2.50        -2.6455   4.0000                                         
     6  0  0.50        -4.9623   1.0000                                         
     6  1  1.50        -1.3606   0.0000                                         
     5  3  2.50        -1.3606   0.0000                                         
   Description                                                                  
     l       E           TYP  RCUT    TYP  RCUT                                 
     2     -2.6455043     23  2.500                                             
     2     -0.6258895     23  2.500                                             
     0     -4.9622780     23  2.500                                             
     0      4.7531321     23  2.500                                             
     1     -1.3605826     23  2.900                                             
     1     27.2116520     23  2.900                                             
  local pseudopotential read in
  partial core-charges read in
  partial kinetic energy density read in
  atomic valenz-charges read in
  non local Contribution for L=           2  read in
    real space projection operators read in
  non local Contribution for L=           2  read in
    real space projection operators read in
  non local Contribution for L=           0  read in
    real space projection operators read in
  non local Contribution for L=           0  read in
    real space projection operators read in
  non local Contribution for L=           1  read in
    real space projection operators read in
  non local Contribution for L=           1  read in
    real space projection operators read in
    PAW grid and wavefunctions read in
 
   number of l-projection  operators is LMAX  =           6
   number of lm-projection operators is LMMAX =          18
 
 POTCAR:    PAW_PBE Ti 08Apr2002                  
   VRHFIN =Ti: d3 s1                                                            
   LEXCH  = PE                                                                  
   EATOM  =    94.7928 eV,    6.9671 Ry                                         
                                                                                
   TITEL  = PAW_PBE Ti 08Apr2002                                                
   LULTRA =        F    use ultrasoft PP ?                                      
   IUNSCR =        1    unscreen: 0-lin 1-nonlin 2-no                           
   RPACOR =    2.200    partial core radius                                     
   POMASS =   47.880; ZVAL   =    4.000    mass and valenz                      
   RCORE  =    2.800    outmost cutoff radius                                   
   RWIGS  =    2.500; RWIGS  =    1.323    wigner-seitz radius (au A)           
   ENMAX  =  178.330; ENMIN  =  133.747 eV                                      
   RCLOC  =    2.215    cutoff for local pot                                    
   LCOR   =        T    correct aug charges                                     
   LPAW   =        T    paw PP                                                  
   EAUG   =  328.883                                                            
   DEXC   =    0.000                                                            
   RMAX   =    2.868    core radius for proj-oper                               
   RAUG   =    1.300    factor for augmentation sphere                          
   RDEP   =    2.885    radius for radial grids                                 
   RDEPT  =    2.320    core radius for aug-charge                              
                                                                                
   Atomic configuration                                                         
    9 entries                                                                   
     n  l   j            E        occ.                                          
     1  0  0.50     -4865.3608   2.0000                                         
     2  0  0.50      -533.1367   2.0000                                         
     2  1  1.50      -440.5031   6.0000                                         
     3  0  0.50       -59.3186   2.0000                                         
     3  1  1.50       -35.7012   6.0000                                         
     3  2  2.50        -1.9157   3.0000                                         
     4  0  0.50        -3.7291   1.0000                                         
     4  1  1.50        -4.0817   0.0000                                         
     4  3  2.50        -1.3606   0.0000                                         
   Description                                                                  
     l       E           TYP  RCUT    TYP  RCUT                                 
     2     -1.9156924     23  2.800                                             
     2     -0.4062961     23  2.800                                             
     0     -3.7290832     23  2.800                                             
     0     20.4087390     23  2.800                                             
     1     -5.4423304     23  2.800                                             
  local pseudopotential read in
  partial core-charges read in
  partial kinetic energy density read in
  atomic valenz-charges read in
  non local Contribution for L=           2  read in
    real space projection operators read in
  non local Contribution for L=           2  read in
    real space projection operators read in
  non local Contribution for L=           0  read in
    real space projection operators read in
  non local Contribution for L=           0  read in
    real space projection operators read in
  non local Contribution for L=           1  read in
    real space projection operators read in
    PAW grid and wavefunctions read in
 
   number of l-projection  operators is LMAX  =           5
   number of lm-projection operators is LMMAX =          15
 
 POTCAR:   PAW_PBE Zr 08Apr2002                   
   VRHFIN =Zr: 5s4d5p                                                           
   LEXCH  = PE                                                                  
   EATOM  =    77.8472 eV,    5.7216 Ry                                         
                                                                                
   TITEL  = PAW_PBE Zr 08Apr2002                                                
   LULTRA =        F    use ultrasoft PP ?                                      
   IUNSCR =        1    unscreen: 0-lin 1-nonlin 2-no                           
   RPACOR =    2.200    partial core radius                                     
   POMASS =   91.224; ZVAL   =    4.000    mass and valenz                      
   RCORE  =    3.000    outmost cutoff radius                                   
   RWIGS  =    3.070; RWIGS  =    1.625    wigner-seitz radius (au A)           
   ENMAX  =  154.632; ENMIN  =  115.974 eV                                      
   RCLOC  =    2.213    cutoff for local pot                                    
   LCOR   =        T    correct aug charges                                     
   LPAW   =        T    paw PP                                                  
   EAUG   =  243.217                                                            
   DEXC   =    -.082                                                            
   RMAX   =    3.708    core radius for proj-oper                               
   RAUG   =    1.300    factor for augmentation sphere                          
   RDEP   =    3.146    radius for radial grids                                 
   QCUT   =   -3.371; QGAM   =    6.742    optimization parameters              
                                                                                
   Description                                                                  
     l     E      TYP  RCUT    TYP  RCUT                                        
     2   .000     23  3.000                                                     
     2   .000     23  3.000                                                     
     0   .000     23  3.000                                                     
     0  2.000     23  3.000                                                     
     1  -.400     23  3.000                                                     
     3   .000      7   .000                                                     
  local pseudopotential read in
  partial core-charges read in
  atomic valenz-charges read in
  non local Contribution for L=           2  read in
    real space projection operators read in
  non local Contribution for L=           2  read in
    real space projection operators read in
  non local Contribution for L=           0  read in
    real space projection operators read in
  non local Contribution for L=           0  read in
    real space projection operators read in
  non local Contribution for L=           1  read in
    real space projection operators read in
    PAW grid and wavefunctions read in
 
   number of l-projection  operators is LMAX  =           5
   number of lm-projection operators is LMMAX =          15
 
 POTCAR:    PAW_PBE O 08Apr2002                   
   VRHFIN =O: s2p4                                                              
   LEXCH  = PE                                                                  
   EATOM  =   432.3788 eV,   31.7789 Ry                                         
                                                                                
   TITEL  = PAW_PBE O 08Apr2002                                                 
   LULTRA =        F    use ultrasoft PP ?                                      
   IUNSCR =        1    unscreen: 0-lin 1-nonlin 2-no                           
   RPACOR =    1.200    partial core radius                                     
   POMASS =   16.000; ZVAL   =    6.000    mass and valenz                      
   RCORE  =    1.520    outmost cutoff radius                                   
   RWIGS  =    1.550; RWIGS  =    0.820    wigner-seitz radius (au A)           
   ENMAX  =  400.000; ENMIN  =  300.000 eV                                      
   ICORE  =        2    local potential                                         
   LCOR   =        T    correct aug charges                                     
   LPAW   =        T    paw PP                                                  
   EAUG   =  605.392                                                            
   DEXC   =    0.000                                                            
   RMAX   =    1.553    core radius for proj-oper                               
   RAUG   =    1.300    factor for augmentation sphere                          
   RDEP   =    1.550    radius for radial grids                                 
   RDEPT  =    1.329    core radius for aug-charge                              
                                                                                
   Atomic configuration                                                         
    4 entries                                                                   
     n  l   j            E        occ.                                          
     1  0  0.50      -514.6923   2.0000                                         
     2  0  0.50       -23.9615   2.0000                                         
     2  1  0.50        -9.0305   4.0000                                         
     3  2  1.50        -9.5241   0.0000                                         
   Description                                                                  
     l       E           TYP  RCUT    TYP  RCUT                                 
     0    -23.9615318     23  1.200                                             
     0     -9.5240782     23  1.200                                             
     1     -9.0304911     23  1.520                                             
     1      8.1634956     23  1.520                                             
     2     -9.5240782      7  1.500                                             
  local pseudopotential read in
  partial core-charges read in
  partial kinetic energy density read in
  kinetic energy density of atom read in
  atomic valenz-charges read in
  non local Contribution for L=           0  read in
    real space projection operators read in
  non local Contribution for L=           0  read in
    real space projection operators read in
  non local Contribution for L=           1  read in
    real space projection operators read in
  non local Contribution for L=           1  read in
    real space projection operators read in
    PAW grid and wavefunctions read in
 
   number of l-projection  operators is LMAX  =           4
   number of lm-projection operators is LMMAX =           8
 

 ----------------------------------------------------------------------------- 
|                                                                             |
|  ADVICE TO THIS USER RUNNING 'VASP/VAMP'   (HEAR YOUR MASTER'S VOICE ...):  |
|                                                                             |
|      You have a (more or less) 'large supercell' and for larger cells       |
|      it might be more efficient to use real space projection opertators     |
|      So try LREAL= Auto  in the INCAR   file.                               |
|      Mind: At the moment your POTCAR file does not contain real space       |
|       projectors, and has to be modified,  BUT if you                       |
|      want to do an extremely  accurate calculation you might also keep the  |
|      reciprocal projection scheme          (i.e. LREAL=.FALSE.)             |
|                                                                             |
 ----------------------------------------------------------------------------- 

 WARNING: PSMAXN for non-local potential too small
          PSMAXN should be >   12.5490833729506       NTYP=           5
  PAW_PBE Al 04Jan2001                  :
 energy of atom  1       EATOM=  -53.5387
 kinetic energy error for atom=    0.0002 (will be added to EATOM!!)
  PAW_PBE Nb_sv 25May2007               :
 energy of atom  2       EATOM=-1555.1913
 kinetic energy error for atom=    0.0037 (will be added to EATOM!!)
  PAW_PBE Ta 17Jan2003                  :
 energy of atom  3       EATOM= -130.6506
 kinetic energy error for atom=    0.0004 (will be added to EATOM!!)
  PAW_PBE Ti 08Apr2002                  :
 energy of atom  4       EATOM=  -94.7928
 kinetic energy error for atom=    0.0001 (will be added to EATOM!!)
 PAW_PBE Zr 08Apr2002                   :
 energy of atom  5       EATOM=  -77.8472
 kinetic energy error for atom=    0.0001 (will be added to EATOM!!)
  PAW_PBE O 08Apr2002                   :
 energy of atom  6       EATOM= -432.3788
 kinetic energy error for atom=    0.0168 (will be added to EATOM!!)
 
 
 POSCAR: Al Nb Ta Ti Zr                          
  positions in direct lattice
  velocities in cartesian coordinates
 exchange correlation table for  LEXCH =        8
   RHO(1)=    0.500       N(1)  =     2000
   RHO(2)=  100.500       N(2)  =     4000
 


--------------------------------------------------------------------------------------------------------


 ion  position               nearest neighbor table
   1  0.623  0.867  0.376-  34 2.83  25 2.88  24 2.88   9 2.88  13 2.90   4 2.91  61 2.93  15 3.16
                            41 3.35  17 3.40
   2  0.625  0.394  0.538-  90 1.84  86 1.91  31 2.61   7 2.67  33 2.68  23 2.74  26 2.94  62 2.97
                            17 2.98  16 3.07  10 3.12  42 3.35
   3  0.611  0.658  0.638-  75 1.80  78 1.80  79 1.81  86 1.86  85 2.10  91 2.30  32 2.75  26 2.88
                            23 2.90   8 3.09  45 3.10  33 3.19
   4  0.618  0.084  0.450-  31 2.80  24 2.86  34 2.87  13 2.88   1 2.91  25 2.92   7 2.92  62 3.09
                            28 3.16  12 3.20  46 3.24
   5  0.965  0.626  0.548-  88 2.21  82 2.22  30 2.71  63 2.83  42 2.85  23 2.92  52 2.95  47 3.12
                            57 3.32  56 3.36  59 3.48  58 3.52  54 3.59
   6  0.980  0.121  0.378-  29 2.80  28 2.80  53 2.91  41 2.96  51 3.05  55 3.05  60 3.08  57 3.37

   7  0.729  0.343  0.458-   2 2.67  28 2.77  29 2.83  31 2.85  17 2.89  11 2.90   4 2.92  63 3.07
                            62 3.20  42 3.20
   8  0.738  0.925  0.637-  91 2.07  78 2.08  71 2.10  83 2.19  77 2.29  18 2.65  30 2.92  27 2.92
                            32 2.93  64 2.95   3 3.09  62 3.17
   9  0.517  0.608  0.367-  35 2.84  15 2.85  17 2.87   1 2.88  11 2.89  61 2.95  43 3.10
  10  0.500  0.125  0.553-  90 2.14  92 2.23  16 2.64  12 2.82  44 3.00  36 3.10   2 3.12  18 3.13
                            46 3.13  62 3.17
  11  0.618  0.343  0.369-  24 2.75  34 2.83  31 2.87   9 2.89   7 2.90  61 2.96  43 3.27
  12  0.610  0.878  0.541-  91 2.03  85 2.37  25 2.81  10 2.82  13 2.86  62 2.87  33 2.97  44 3.13
                             4 3.20
  13  0.742  0.843  0.462-  30 2.71  12 2.86  17 2.87   4 2.88   1 2.90  28 2.94  63 2.98  41 3.05
                            57 3.27
  14  0.771  0.408  0.654-  79 1.98  74 1.99  89 2.00  76 2.04  58 2.89  27 3.01  23 3.02  64 3.06
                            42 3.15  18 3.17
  15  0.394  0.847  0.369-  22 2.68  19 2.76  25 2.83  34 2.84   9 2.85  39 2.98   1 3.16  46 3.43

  16  0.403  0.357  0.535-  84 2.12  87 2.21  92 2.25  31 2.62  10 2.64  33 2.77  21 2.79  37 2.83
                            20 2.87  40 3.04  26 3.05   2 3.07  46 3.28
  17  0.619  0.602  0.458-  33 2.75  25 2.81  31 2.85   9 2.87  13 2.87   7 2.89  61 2.95   2 2.98
                            35 3.03   1 3.40  63 3.44
  18  0.627  0.150  0.646-  72 2.00  90 2.02  71 2.07  74 2.09  89 2.61  32 2.64   8 2.65  26 2.81
                            36 3.08  62 3.12  10 3.13  14 3.17  64 3.62
  19  0.279  0.834  0.451-  15 2.76  35 2.94  46 2.96  39 2.97  44 2.98  25 2.99  60 3.07  51 3.08
                            47 3.12  56 3.19
  20  0.290  0.365  0.622-  70 2.02  69 2.13  92 2.15  87 2.20  84 2.28  67 2.45  16 2.87  36 2.93
                            21 3.06  48 3.12  59 3.13  26 3.13  40 3.20  52 3.28  45 3.33
  21  0.279  0.586  0.542-  84 2.10  80 2.13  82 2.14  87 2.17  16 2.79  44 3.00  35 3.02  37 3.03
                            59 3.03  20 3.06  56 3.07  33 3.08  47 3.11  52 3.19  45 3.38
  22  0.283  0.077  0.361-  15 2.68  46 2.97  43 2.97  34 2.99  51 3.02  55 3.10  60 3.10
  23  0.757  0.593  0.566-  91 1.98  79 2.21  86 2.25  30 2.64  42 2.68   2 2.74   3 2.90   5 2.92
                            14 3.02  63 3.35
  24  0.740  0.115  0.366-  29 2.73  11 2.75  28 2.85   4 2.86   1 2.88  41 3.00
  25  0.496  0.836  0.458-  35 2.78  12 2.81  17 2.81  15 2.83   1 2.88  44 2.88   4 2.92  19 2.99
                            46 2.99  33 3.09
  26  0.516  0.392  0.629-  70 1.96  74 2.04  75 2.10  86 2.15  90 2.28  87 2.34  18 2.81   3 2.88
                             2 2.94  16 3.05  36 3.07  20 3.13  45 3.28
  27  0.865  0.691  0.662-  68 1.97  77 1.98  76 1.98  79 1.98   8 2.92  54 2.94  58 2.98  14 3.01

  28  0.847  0.110  0.455-   7 2.77   6 2.80  24 2.85  57 2.90  13 2.94  53 2.98  62 2.99  29 3.15
                             4 3.16  50 3.20  41 3.36
  29  0.852  0.349  0.376-  24 2.73   6 2.80   7 2.83  53 2.94  61 2.98  49 3.07  28 3.15  63 3.25

  30  0.835  0.840  0.548-  83 2.02  91 2.11  88 2.17  23 2.64  13 2.71   5 2.71   8 2.92  57 3.05
                            62 3.08  50 3.12  63 3.47
  31  0.522  0.339  0.461-   2 2.61  16 2.62   4 2.80  17 2.85   7 2.85  35 2.86  11 2.87  46 2.95
                            43 3.11
  32  0.526  0.916  0.647-  78 1.93  72 2.00  65 2.06  85 2.06  36 2.60  18 2.64   3 2.75   8 2.93
                            45 2.99  44 3.48
  33  0.502  0.610  0.538-  86 2.12  85 2.17  87 2.29   2 2.68  17 2.75  16 2.77  35 2.79  44 2.91
                            12 2.97  21 3.08  25 3.09   3 3.19  45 3.46
  34  0.499  0.102  0.365-  11 2.83   1 2.83  15 2.84   4 2.87  43 2.91  46 2.98  22 2.99
  35  0.400  0.580  0.451-  25 2.78  33 2.79   9 2.84  31 2.86  37 2.88  39 2.93  19 2.94  21 3.02
                            17 3.03  43 3.08
  36  0.405  0.124  0.654-  72 1.97  70 1.98  92 2.02  67 2.06  65 2.17  32 2.60  20 2.93  38 3.00
                            26 3.07  18 3.08  10 3.10
  37  0.255  0.366  0.464-  84 2.15  16 2.83  35 2.88  47 3.02  21 3.03  60 3.04  43 3.05  55 3.08
                            46 3.08  40 3.10  52 3.30  39 3.39
  38  0.237  0.926  0.643-  73 1.89  65 2.03  67 2.11  80 2.22  48 2.89  54 2.93  56 2.99  36 3.00
                            59 3.11  45 3.17  44 3.43  40 3.45
  39  0.252  0.614  0.376-  35 2.93  19 2.97  15 2.98  47 3.07  43 3.07  51 3.07  55 3.08  37 3.39
                            49 3.53
  40  0.248  0.132  0.541-  92 2.11  84 2.28  60 2.89  56 3.01  46 3.03  16 3.04  37 3.10  44 3.19
                            52 3.20  20 3.20  48 3.31  38 3.45  50 3.69
  41  0.865  0.859  0.370-   6 2.96  24 3.00  61 3.05  13 3.05  57 3.06  49 3.12   1 3.35  28 3.36
                            51 3.49  63 3.53
  42  0.866  0.364  0.551-  89 2.22  81 2.29  23 2.68   5 2.85  62 2.97  50 3.10  14 3.15  52 3.18
                             7 3.20  53 3.30  58 3.34   2 3.35  63 3.37  64 3.64
  43  0.381  0.352  0.373-  34 2.91  22 2.97  37 3.05  39 3.07  35 3.08   9 3.10  31 3.11  55 3.26
                            11 3.27  46 3.29
  44  0.383  0.861  0.545-  80 2.30  85 2.41  25 2.88  33 2.91  19 2.98  21 3.00  10 3.00  12 3.13
                            56 3.17  40 3.19  45 3.34  46 3.39  38 3.43  32 3.48
  45  0.387  0.675  0.647-  75 2.05  69 2.07  87 2.15  65 2.19  80 2.26  85 2.32  32 2.99   3 3.10
                            38 3.17  26 3.28  59 3.28  20 3.33  44 3.34  21 3.38  33 3.46
  46  0.384  0.104  0.456-  31 2.95  19 2.96  22 2.97  34 2.98  25 2.99  40 3.03  37 3.08  10 3.13
                             4 3.24  60 3.27  16 3.28  43 3.29  44 3.39  15 3.43
  47  0.117  0.611  0.465-  82 2.33  37 3.02  39 3.07  21 3.11  19 3.12   5 3.12  53 3.14  49 3.15
                            57 3.17  56 3.27  52 3.29  63 3.42  51 3.52  55 3.80
  48  0.112  0.169  0.639-  67 2.08  66 2.11  81 2.29  38 2.89  54 3.01  58 3.11  20 3.12  64 3.13
                            52 3.15  50 3.19  40 3.31
  49  0.996  0.593  0.368-  63 3.05  29 3.07  41 3.12  47 3.15  51 3.16  55 3.23  53 3.44  39 3.53
                            61 3.65  57 3.82
  50  0.982  0.087  0.548-  81 2.20  88 2.25  83 2.28  57 3.06  42 3.10  30 3.12  48 3.19  28 3.20
                            52 3.24  54 3.25  56 3.26  64 3.29  62 3.50  53 3.52  60 3.53  40 3.69
  51  0.119  0.872  0.375-  60 3.00  22 3.02   6 3.05  39 3.07  19 3.08  57 3.16  49 3.16  41 3.49
                            47 3.52
  52  0.096  0.384  0.553-  84 2.15  81 2.25  82 2.30   5 2.95  53 3.12  48 3.15  42 3.18  21 3.19
                            40 3.20  50 3.24  59 3.26  58 3.26  20 3.28  47 3.29  37 3.30
  53  1.000  0.331  0.453-   6 2.91  29 2.94  28 2.98  60 3.06  63 3.08  55 3.09  52 3.12  47 3.14
                            42 3.30  49 3.44  50 3.52
  54  0.027  0.879  0.639-  73 2.16  77 2.20  68 2.21  88 2.36  38 2.93  27 2.94  59 3.00  48 3.01
                            56 3.08  64 3.15  50 3.25   5 3.59
  55  0.145  0.332  0.368-   6 3.05  37 3.08  39 3.08  53 3.09  22 3.10  49 3.23  60 3.24  43 3.26
                            47 3.80
  56  0.153  0.850  0.547-  88 2.22  82 2.23  80 2.32  38 2.99  40 3.01  21 3.07  54 3.08  59 3.16
                            44 3.17  19 3.19  50 3.26  47 3.27  57 3.31   5 3.36  60 3.53
  57  0.979  0.876  0.465-  88 2.51  28 2.90  30 3.05  41 3.06  50 3.06  63 3.11  60 3.13  51 3.16
                            47 3.17  13 3.27  56 3.31   5 3.32   6 3.37  49 3.82
  58  0.981  0.429  0.655-  66 2.12  76 2.13  68 2.18  81 2.22  14 2.89  27 2.98  64 3.07  59 3.11
                            48 3.11  52 3.26  42 3.34   5 3.52
  59  0.154  0.626  0.631-  69 2.12  68 2.17  73 2.20  80 2.26  82 2.32  54 3.00  21 3.03  58 3.11
                            38 3.11  20 3.13  56 3.16  52 3.26  45 3.28   5 3.48
  60  0.147  0.092  0.451-  40 2.89  51 3.00  37 3.04  53 3.06  19 3.07   6 3.08  22 3.10  57 3.13
                            55 3.24  46 3.27  50 3.53  56 3.53
  61  0.731  0.606  0.367-   1 2.93  17 2.95   9 2.95  11 2.96  29 2.98  41 3.05  63 3.17  49 3.65

  62  0.730  0.124  0.546-  89 2.26  83 2.26  90 2.27  12 2.87   2 2.97  42 2.97  28 2.99  30 3.08
                             4 3.09  18 3.12   8 3.17  10 3.17   7 3.20  50 3.50  64 3.77
  63  0.869  0.592  0.458-   5 2.83  13 2.98  49 3.05   7 3.07  53 3.08  57 3.11  61 3.17  29 3.25
                            23 3.35  42 3.37  47 3.42  17 3.44  30 3.47  41 3.53
  64  0.889  0.137  0.656-  66 2.12  71 2.15  89 2.18  83 2.28  77 2.39  81 2.44   8 2.95  14 3.06
                            58 3.07  48 3.13  54 3.15  50 3.29  18 3.62  42 3.64  62 3.77
  65  0.380  0.901  0.660-  38 2.03  32 2.06  36 2.17  45 2.19
  66  0.009  0.236  0.690-  48 2.11  64 2.12  58 2.12
  67  0.256  0.139  0.660-  36 2.06  48 2.08  38 2.11  20 2.45
  68  0.004  0.654  0.653-  27 1.97  59 2.17  58 2.18  54 2.21
  69  0.276  0.542  0.668-  45 2.07  59 2.12  20 2.13
  70  0.404  0.328  0.666-  26 1.96  36 1.98  20 2.02
  71  0.748  0.093  0.686-  18 2.07   8 2.10  64 2.15
  72  0.524  0.083  0.691-  36 1.97  18 2.00  32 2.00
  73  0.152  0.810  0.679-  38 1.89  54 2.16  59 2.20
  74  0.636  0.356  0.671-  14 1.99  26 2.04  18 2.09
  75  0.512  0.578  0.670-   3 1.80  45 2.05  26 2.10
  76  0.866  0.512  0.698-  27 1.98  14 2.04  58 2.13
  77  0.885  0.893  0.675-  27 1.98  54 2.20   8 2.29  64 2.39
  78  0.633  0.812  0.674-   3 1.80  32 1.93   8 2.08
  79  0.738  0.607  0.645-   3 1.81  14 1.98  27 1.98  23 2.21
  80  0.273  0.749  0.595-  21 2.13  38 2.22  45 2.26  59 2.26  44 2.30  56 2.32
  81  0.986  0.267  0.598-  50 2.20  58 2.22  52 2.25  42 2.29  48 2.29  64 2.44
  82  0.126  0.620  0.548-  21 2.14   5 2.22  56 2.23  52 2.30  59 2.32  47 2.33
  83  0.847  0.015  0.589-  30 2.02   8 2.19  62 2.26  64 2.28  50 2.28
  84  0.250  0.370  0.542-  21 2.10  16 2.12  52 2.15  37 2.15  40 2.28  20 2.28
  85  0.507  0.762  0.596-  32 2.06   3 2.10  33 2.17  45 2.32  12 2.37  44 2.41
  86  0.606  0.531  0.587-   3 1.86   2 1.91  33 2.12  26 2.15  23 2.25
  87  0.392  0.519  0.592-  45 2.15  21 2.17  20 2.20  16 2.21  33 2.29  26 2.34
  88  0.992  0.853  0.556-  30 2.17   5 2.21  56 2.22  50 2.25  54 2.36  57 2.51
  89  0.788  0.247  0.609-  14 2.00  64 2.18  42 2.22  62 2.26  18 2.61
  90  0.613  0.253  0.583-   2 1.84  18 2.02  10 2.14  62 2.27  26 2.28
  91  0.707  0.779  0.584-  23 1.98  12 2.03   8 2.07  30 2.11   3 2.30
  92  0.362  0.191  0.588-  36 2.02  40 2.11  20 2.15  10 2.23  16 2.25
 
  LATTYP: Found a simple orthorhombic cell.
 ALAT       =     9.5644817352
 B/A-ratio  =     1.4398428730
 C/A-ratio  =     2.8922184390
  
  Lattice vectors:
  
 A1 = (   0.0000000000,  -9.5644817352,   0.0000000000)
 A2 = ( -13.7713508606,   0.0000000000,   0.0000000000)
 A3 = (   0.0000000000,   0.0000000000, -27.6625704340)


Analysis of symmetry for initial positions (statically):
=====================================================================
 Subroutine PRICEL returns:
 Original cell was already a primitive cell.
 

 Routine SETGRP: Setting up the symmetry group for a 
 simple orthorhombic supercell.


 Subroutine GETGRP returns: Found  1 space group operations
 (whereof  1 operations were pure point group operations)
 out of a pool of  8 trial point group operations.


The static configuration has the point symmetry C_1 .


Analysis of symmetry for dynamics (positions and initial velocities):
=====================================================================
 Subroutine PRICEL returns:
 Original cell was already a primitive cell.
 

 Routine SETGRP: Setting up the symmetry group for a 
 simple orthorhombic supercell.


 Subroutine GETGRP returns: Found  1 space group operations
 (whereof  1 operations were pure point group operations)
 out of a pool of  8 trial point group operations.


The dynamic configuration has the point symmetry C_1 .


Analysis of constrained symmetry for selective dynamics:
=====================================================================
 Subroutine PRICEL returns:
 Original cell was already a primitive cell.
 

 Routine SETGRP: Setting up the symmetry group for a 
 simple orthorhombic supercell.


 Subroutine GETGRP returns: Found  1 space group operations
 (whereof  1 operations were pure point group operations)
 out of a pool of  8 trial point group operations.


The constrained configuration has the point symmetry C_1 .


 Subroutine INISYM returns: Found  1 space group operations
 (whereof  1 operations are pure point group operations),
 and found     1 'primitive' translations

 
 
 KPOINTS: k-points                                

Automatic generation of k-mesh.
Space group operators:
 irot       det(A)        alpha          n_x          n_y          n_z        tau_x        tau_y        tau_z
    1     1.000000     0.000000     1.000000     0.000000     0.000000     0.000000     0.000000     0.000000
 
 Subroutine IBZKPT returns following result:
 ===========================================
 
 Found      5 irreducible k-points:
 
 Following reciprocal coordinates:
            Coordinates               Weight
  0.000000  0.000000  0.000000      1.000000
  0.333333  0.000000  0.000000      2.000000
  0.000000  0.333333  0.000000      2.000000
  0.333333  0.333333  0.000000      2.000000
 -0.333333  0.333333  0.000000      2.000000
 
 Following cartesian coordinates:
            Coordinates               Weight
  0.000000  0.000000  0.000000      1.000000
  0.024205  0.000000  0.000000      2.000000
  0.000000  0.034851  0.000000      2.000000
  0.024205  0.034851  0.000000      2.000000
 -0.024205  0.034851  0.000000      2.000000
 


--------------------------------------------------------------------------------------------------------




 Dimension of arrays:
   k-points           NKPTS =      5   k-points in BZ     NKDIM =      5   number of bands    NBANDS=    308
   number of dos      NEDOS =    301   number of ions     NIONS =     92
   non local maximal  LDIM  =      6   non local SUM 2l+1 LMDIM =     18
   total plane-waves  NPLWV = 846720
   max r-space proj   IRMAX =      1   max aug-charges    IRDMAX=  25433
   dimension x,y,z NGX =    84 NGY =   60 NGZ =  168
   dimension x,y,z NGXF=   168 NGYF=  120 NGZF=  336
   support grid    NGXF=   168 NGYF=  120 NGZF=  336
   ions per type =               6  10   4  18  26  28
 NGX,Y,Z   is equivalent  to a cutoff of  10.14, 10.43, 10.10 a.u.
 NGXF,Y,Z  is equivalent  to a cutoff of  20.28, 20.86, 20.19 a.u.


 I would recommend the setting:
   dimension x,y,z NGX =    83 NGY =   57 NGZ =  166
 SYSTEM =  (110) surface                           
 POSCAR =  Al Nb Ta Ti Zr                          

 Startparameter for this run:
   NWRITE =      2    write-flag & timer
   PREC   = normal    normal or accurate (medium, high low for compatibility)
   ISTART =      0    job   : 0-new  1-cont  2-samecut
   ICHARG =      2    charge: 1-file 2-atom 10-const
   ISPIN  =      1    spin polarized calculation?
   LNONCOLLINEAR =      F non collinear calculations
   LSORBIT =      F    spin-orbit coupling
   INIWAV =      1    electr: 0-lowe 1-rand  2-diag
   LASPH  =      F    aspherical Exc in radial PAW
   METAGGA=      F    non-selfconsistent MetaGGA calc.

 Electronic Relaxation 1
   ENCUT  =  600.0 eV  44.10 Ry    6.64 a.u.  27.50 19.10 55.25*2*pi/ulx,y,z
   ENINI  =  600.0     initial cutoff
   ENAUG  =  605.4 eV  augmentation charge cutoff
   NELM   =     60;   NELMIN=  2; NELMDL= -5     # of ELM steps 
   EDIFF  = 0.1E-03   stopping-criterion for ELM
   LREAL  =      F    real-space projection
   NLSPLINE    = F    spline interpolate recip. space projectors
   LCOMPAT=      F    compatible to vasp.4.4
   GGA_COMPAT  = T    GGA compatible to vasp.4.4-vasp.4.6
   LMAXPAW     = -100 max onsite density
   LMAXMIX     =    2 max onsite mixed and CHGCAR
   VOSKOWN=      0    Vosko Wilk Nusair interpolation
   ROPT   =    0.00000   0.00000   0.00000   0.00000
   ROPT   =    0.00000   0.00000
 Ionic relaxation
   EDIFFG = 0.1E-02   stopping-criterion for IOM
   NSW    =      0    number of steps for IOM
   NBLOCK =      1;   KBLOCK =      1    inner block; outer block 
   IBRION =     -1    ionic relax: 0-MD 1-quasi-New 2-CG
   NFREE  =      0    steps in history (QN), initial steepest desc. (CG)
   ISIF   =      2    stress and relaxation
   IWAVPR =     10    prediction:  0-non 1-charg 2-wave 3-comb
   ISYM   =      2    0-nonsym 1-usesym 2-fastsym
   LCORR  =      T    Harris-Foulkes like correction to forces

   POTIM  = 0.1000    time-step for ionic-motion
   TEIN   =    0.0    initial temperature
   TEBEG  =    0.0;   TEEND  =   0.0 temperature during run
   SMASS  =  -3.00    Nose mass-parameter (am)
   estimated Nose-frequenzy (Omega)   =  0.10E-29 period in steps =****** mass=  -0.433E-26a.u.
   SCALEE = 1.0000    scale energy and forces
   NPACO  =    256;   APACO  = 16.0  distance and # of slots for P.C.
   PSTRESS=    0.0 pullay stress

  Mass of Ions in am
   POMASS =  26.98 92.91180.95 47.88 91.22 16.00
  Ionic Valenz
   ZVAL   =   3.00 13.00  5.00  4.00  4.00  6.00
  Atomic Wigner-Seitz radii
   RWIGS  =  -1.00 -1.00 -1.00 -1.00 -1.00 -1.00
  virtual crystal weights 
   VCA    =   1.00  1.00  1.00  1.00  1.00  1.00
   NELECT =     512.0000    total number of electrons
   NUPDOWN=      -1.0000    fix difference up-down

 DOS related values:
   EMIN   =  10.00;   EMAX   =-10.00  energy-range for DOS
   EFERMI =   0.00
   ISMEAR =     2;   SIGMA  =   0.10  broadening in eV -4-tet -1-fermi 0-gaus

 Electronic relaxation 2 (details)
   IALGO  =     68    algorithm
   LDIAG  =      T    sub-space diagonalisation (order eigenvalues)
   LSUBROT=      F    optimize rotation matrix (better conditioning)
   TURBO    =      0    0=normal 1=particle mesh
   IRESTART =      0    0=no restart 2=restart with 2 vectors
   NREBOOT  =      0    no. of reboots
   NMIN     =      0    reboot dimension
   EREF     =   0.00    reference energy to select bands
   IMIX   =      4    mixing-type and parameters
     AMIX     =   0.40;   BMIX     =  1.00
     AMIX_MAG =   1.60;   BMIX_MAG =  1.00
     AMIN     =   0.10
     WC   =   100.;   INIMIX=   1;  MIXPRE=   1;  MAXMIX= -45

 Intra band minimization:
   WEIMIN = 0.0000     energy-eigenvalue tresh-hold
   EBREAK =  0.81E-07  absolut break condition
   DEPER  =   0.30     relativ break condition  

   TIME   =   0.40     timestep for ELM

  volume/ion in A,a.u.               =      39.60       267.26
  Fermi-wavevector in a.u.,A,eV,Ry     =   0.851114  1.608373  9.856004  0.724396
  Thomas-Fermi vector in A             =   1.967197
 
 Write flags
   LWAVE  =      F    write WAVECAR
   LCHARG =      T    write CHGCAR
   LVTOT  =      F    write LOCPOT, total local potential
   LVHAR  =      F    write LOCPOT, Hartree potential only
   LELF   =      F    write electronic localiz. function (ELF)
   LORBIT =      0    0 simple, 1 ext, 2 COOP (PROOUT)


 Dipole corrections
   LMONO  =      F    monopole corrections only (constant potential shift)
   LDIPOL =      F    correct potential (dipole corrections)
   IDIPOL =      0    1-x, 2-y, 3-z, 4-all directions 
   EPSILON=  1.0000000 bulk dielectric constant

 Exchange correlation treatment:
   GGA     =    --    GGA type
   LEXCH   =     8    internal setting for exchange type
   VOSKOWN=      0    Vosko Wilk Nusair interpolation
   LHFCALC =     F    Hartree Fock is set to
   LHFONE  =     F    Hartree Fock one center treatment
   AEXX    =    0.0000 exact exchange contribution

 Linear response parameters
   LEPSILON=     F    determine dielectric tensor
   LRPA    =     F    only Hartree local field effects (RPA)
   LNABLA  =     F    use nabla operator in PAW spheres
   LVEL    =     F    velocity operator in full k-point grid
   LINTERFAST=   F  fast interpolation
   KINTER  =     0    interpolate to denser k-point grid
   CSHIFT  =0.1000    complex shift for real part using Kramers Kronig
   OMEGAMAX=  -1.0    maximum frequency
   DEG_THRESHOLD= 0.2000000E-02 threshold for treating states as degnerate
   RTIME   =    0.100 relaxation time in fs

 Orbital magnetization related:
   ORBITALMAG=     F  switch on orbital magnetization
   LCHIMAG   =     F  perturbation theory with respect to B field
   DQ        =  0.001000  dq finite difference perturbation B field



--------------------------------------------------------------------------------------------------------


 Static calculation
 charge density and potential will be updated during run
 non-spin polarized calculation
 RMM-DIIS sequential band-by-band and
  variant of blocked Davidson during initial phase
 perform sub-space diagonalisation
    before iterative eigenvector-optimisation
 modified Broyden-mixing scheme, WC =      100.0
 initial mixing is a Kerker type mixing with AMIX =  0.4000 and BMIX =      1.0000
 Hartree-type preconditioning will be used
 using additional bands           52
 reciprocal scheme for non local part
 use partial core corrections
 calculate Harris-corrections to forces 
   (improved forces if not selfconsistent)
 use gradient corrections 
 use of overlap-Matrix (Vanderbilt PP)
 Methfessel and Paxton  Order N= 2 SIGMA  =   0.10


--------------------------------------------------------------------------------------------------------


  energy-cutoff  :      600.00
  volume of cell :     3643.60
      direct lattice vectors                 reciprocal lattice vectors
    13.771350861  0.000000000  0.000000000     0.072614518  0.000000000  0.000000000
     0.000000000  9.564481735  0.000000000     0.000000000  0.104553496  0.000000000
     0.000000000  0.000000000 27.662570434     0.000000000  0.000000000  0.036149931

  length of vectors
    13.771350861  9.564481735 27.662570434     0.072614518  0.104553496  0.036149931


 
 k-points in units of 2pi/SCALE and weight: k-points                                
   0.00000000  0.00000000  0.00000000       0.111
   0.02420484  0.00000000  0.00000000       0.222
   0.00000000  0.03485117  0.00000000       0.222
   0.02420484  0.03485117  0.00000000       0.222
  -0.02420484  0.03485117  0.00000000       0.222
 
 k-points in reciprocal lattice and weights: k-points                                
   0.00000000  0.00000000  0.00000000       0.111
   0.33333333  0.00000000  0.00000000       0.222
   0.00000000  0.33333333  0.00000000       0.222
   0.33333333  0.33333333  0.00000000       0.222
  -0.33333333  0.33333333  0.00000000       0.222
 
 position of ions in fractional coordinates (direct lattice) 
   0.62276447  0.86746430  0.37590333
   0.62512748  0.39413800  0.53779104
   0.61149786  0.65806686  0.63819208
   0.61839700  0.08363760  0.44965952
   0.96470976  0.62617943  0.54803428
   0.97963780  0.12056648  0.37767599
   0.72857308  0.34338307  0.45816820
   0.73804697  0.92522611  0.63718129
   0.51739597  0.60805875  0.36719826
   0.50013977  0.12495586  0.55277156
   0.61811078  0.34297293  0.36889183
   0.60991442  0.87849702  0.54074712
   0.74231148  0.84345710  0.46199300
   0.77147061  0.40788915  0.65407982
   0.39405298  0.84738672  0.36896032
   0.40344467  0.35736087  0.53495576
   0.61928761  0.60162497  0.45752798
   0.62729936  0.15016929  0.64594115
   0.27944195  0.83362269  0.45088327
   0.29004154  0.36509091  0.62191791
   0.27883122  0.58585010  0.54203615
   0.28324246  0.07725573  0.36149931
   0.75714584  0.59311280  0.56574163
   0.74002355  0.11549973  0.36646499
   0.49591756  0.83582580  0.45790018
   0.51623335  0.39187564  0.62906816
   0.86450773  0.69141448  0.66229301
   0.84724605  0.11017048  0.45460239
   0.85243583  0.34907103  0.37639265
   0.83532724  0.83980041  0.54826760
   0.52175105  0.33942658  0.46105252
   0.52605873  0.91628863  0.64697536
   0.50158522  0.61018281  0.53793505
   0.49943882  0.10200214  0.36464270
   0.40016663  0.58028412  0.45130253
   0.40473693  0.12406963  0.65433822
   0.25505811  0.36595738  0.46399110
   0.23724590  0.92603257  0.64336315
   0.25182599  0.61397660  0.37627308
   0.24784216  0.13240514  0.54135276
   0.86539888  0.85904646  0.37036829
   0.86573097  0.36435836  0.55143755
   0.38059813  0.35186696  0.37331264
   0.38278156  0.86101250  0.54516526
   0.38736915  0.67533475  0.64721322
   0.38408008  0.10357511  0.45579618
   0.11657381  0.61110574  0.46457054
   0.11243578  0.16864998  0.63929128
   0.99629861  0.59295863  0.36811234
   0.98245555  0.08725231  0.54829693
   0.11869311  0.87196302  0.37467704
   0.09627814  0.38360313  0.55336892
   0.99977952  0.33051389  0.45306987
   0.02697797  0.87948624  0.63857058
   0.14482272  0.33176249  0.36788561
   0.15276868  0.84987925  0.54729268
   0.97888047  0.87608504  0.46520830
   0.98100647  0.42920156  0.65518843
   0.15395255  0.62577206  0.63126940
   0.14721048  0.09173214  0.45072276
   0.73135245  0.60578495  0.36679988
   0.72987624  0.12381062  0.54559215
   0.86923259  0.59196168  0.45825814
   0.88904532  0.13698236  0.65631251
   0.37961748  0.90093703  0.66027997
   0.00862824  0.23592144  0.69038140
   0.25584894  0.13933594  0.66012765
   0.00401736  0.65438831  0.65264410
   0.27609583  0.54243385  0.66827143
   0.40377178  0.32800426  0.66645123
   0.74813232  0.09314734  0.68573298
   0.52394612  0.08262351  0.69088191
   0.15215765  0.80983009  0.67888369
   0.63560047  0.35586255  0.67090331
   0.51188911  0.57753737  0.66962653
   0.86582888  0.51168812  0.69789908
   0.88500087  0.89317039  0.67458254
   0.63283936  0.81172881  0.67417233
   0.73754916  0.60734210  0.64484934
   0.27324107  0.74904486  0.59458695
   0.98577213  0.26728452  0.59765609
   0.12581730  0.62026827  0.54846022
   0.84712686  0.01480275  0.58872963
   0.25024220  0.37038225  0.54183127
   0.50692511  0.76176443  0.59602189
   0.60552981  0.53123798  0.58725496
   0.39223818  0.51918462  0.59152325
   0.99226447  0.85304255  0.55552171
   0.78847063  0.24698648  0.60896362
   0.61316549  0.25262256  0.58266598
   0.70679430  0.77928769  0.58401923
   0.36197096  0.19068558  0.58837780
 
 position of ions in cartesian coordinates  (Angst):
   8.57630799  8.29684649 10.39845223
   8.60884993  3.76972568 14.87668243
   8.42115164  6.29406843 17.65403324
   8.51616202  0.79995025 12.43873821
  13.28535659  5.98908170 15.16003690
  13.49093588  1.15315590 10.44748880
  10.03343557  3.28428114 12.67411000
  10.16390380  8.84930823 17.62607227
   7.12524148  5.81576681 10.15764776
   6.88760028  1.19513803 15.29108218
   8.51222037  3.28035836 10.20449636
   8.39934550  8.40236873 14.95845529
  10.22263181  8.06723005 12.77991378
  10.62419242  3.90124832 18.09352922
   5.42664188  8.10481479 10.20639088
   5.55597811  3.41797153 14.79825126
   8.52842696  5.75423100 12.65640004
   8.63875953  1.43629142 17.86839262
   3.84829318  7.97316903 12.47259035
   3.99426384  3.49190531 17.20384788
   3.83988257  5.60335261 14.99411316
   3.90063135  0.73891098 10.00000000
  10.42692096  5.67281658 15.64986759
  10.19112400  1.10469510 10.13736353
   6.82945470  7.99424061 12.66669595
   7.10923055  3.74808736 17.40164239
  11.90543925  6.61302120 18.32072714
  11.66772263  1.05372358 12.57547056
  11.73919286  3.33868345 10.41198829
  11.50358451  8.03225571 15.16649118
   7.18521672  3.24643930 12.75389771
   7.24453932  8.76382582 17.89700154
   6.90750603  5.83608231 14.88066623
   6.87794726  0.97559764 10.08695433
   5.51083508  5.55011685 12.48418803
   5.57377424  1.18666168 18.10067709
   3.51249472  3.50019267 12.83518635
   3.26719649  8.85702163 17.79707853
   3.46798404  5.87236796 10.40868071
   3.41312135  1.26638651 14.97520878
  11.91771166  8.21633417 10.24533883
  11.92228491  3.48489887 15.25418013
   5.24135036  3.36542512 10.32678719
   5.27141917  8.23513831 15.08067240
   5.33459654  6.45922689 17.90358139
   5.28930157  0.99064225 12.60849381
   1.60537885  5.84490969 12.85121538
   1.54839252  1.61304965 17.68443996
  13.72037774  5.67134198 10.18293350
  13.52974008  0.83452314 15.16730235
   1.63456451  8.33987442 10.36453009
   1.32588007  3.66896514 15.30760675
  13.76831459  3.16119411 12.53307716
   0.37152316  8.41183006 17.66450359
   1.99440444  3.17313630 10.17666150
   2.10383107  8.12865459 15.13952238
  13.48050634  8.37929939 12.86885734
  13.50978426  4.10509047 18.12419605
   2.12013452  5.98518546 17.46253415
   2.02728715  0.87737042 12.46815015
  10.07171117  5.79401911 10.14662739
  10.05138175  1.18418442 15.09248130
  11.97050705  5.66180669 12.67659812
  12.24335506  1.31016530 18.15529093
   5.22784548  8.61699572 18.26504112
   0.11882259  2.25646628 19.09772416
   3.52338547  1.33267604 18.26082768
   0.05532442  6.25888503 18.05381350
   3.80221250  5.18809862 18.48610549
   5.56048289  3.13719073 18.43575415
  10.30279267  0.89090600 18.96913673
   7.21544585  0.79025101 19.11156942
   2.09541643  7.74560514 18.77966785
   8.75307709  3.40364085 18.55891021
   7.04940453  5.52384562 18.52359102
  11.92363323  4.89403164 19.30568237
  12.18765743  8.54271193 18.66068710
   8.71505293  7.76376538 18.64933950
  10.15704829  5.80891245 17.83819019
   3.76289860  7.16422591 16.44780345
  13.57541389  2.55643788 16.53270366
   1.73267420  5.93254456 15.17181933
  11.66608116  0.14158059 16.28577477
   3.44617311  3.54251429 14.98844562
   6.98104361  7.28588200 16.48749763
   8.33896341  5.08101597 16.24498165
   5.40164960  4.96573182 16.36305346
  13.66482219  8.15890991 15.36715840
  10.85830565  2.36229772 16.84549914
   8.44411713  2.41620385 16.11803870
   9.73351236  7.45348284 16.15547312
   4.98482905  1.82380870 16.27604220
 


--------------------------------------------------------------------------------------------------------


 k-point  1 :   0.0000 0.0000 0.0000  plane waves:  121663
 k-point  2 :   0.3333 0.0000 0.0000  plane waves:  121577
 k-point  3 :   0.0000 0.3333 0.0000  plane waves:  121622
 k-point  4 :   0.3333 0.3333 0.0000  plane waves:  121647
 k-point  5 :  -0.3333 0.3333 0.0000  plane waves:  121647

 maximum and minimum number of plane-waves per node :      5107     5041

 maximum number of plane-waves:    121663
 maximum index in each direction: 
   IXMAX=   27   IYMAX=   19   IZMAX=   55
   IXMIN=  -27   IYMIN=  -19   IZMIN=  -55

 WARNING: aliasing errors must be expected set NGX to 110 to avoid them
 WARNING: aliasing errors must be expected set NGY to  78 to avoid them
 WARNING: aliasing errors must be expected set NGZ to 222 to avoid them
 aliasing errors are usually negligible using standard VASP settings
 and one can safely disregard these warnings

 parallel 3D FFT for wavefunctions:
    minimum data exchange during FFTs selected (reduces bandwidth)
 parallel 3D FFT for charge:
    minimum data exchange during FFTs selected (reduces bandwidth)


 total amount of memory used by VASP on root node   145045. kBytes
========================================================================

   base      :      30000. kBytes
   nonl-proj :      29388. kBytes
   fftplans  :       6516. kBytes
   grid      :      15878. kBytes
   one-center:         62. kBytes
   wavefun   :      63201. kBytes
 
     INWAV:  cpu time    0.0000: real time    0.0000
 Broyden mixing: mesh for mixing (old mesh)
   NGX = 55   NGY = 39   NGZ =111
  (NGX  =168   NGY  =120   NGZ  =336)
  gives a total of 238095 points

 initial charge density was supplied:
 charge density of overlapping atoms calculated
 number of electron     512.0000000 magnetization 
 keeping initial charge density in first step


--------------------------------------------------------------------------------------------------------


 Maximum index for augmentation-charges         1033 (set IRDMAX)


--------------------------------------------------------------------------------------------------------


 First call to EWALD:  gamma=   0.115
 Maximum number of real-space cells 3x 4x 2
 Maximum number of reciprocal cells 3x 2x 5

 FEWALD executed in parallel
    FEWALD:  cpu time    0.0033: real time    0.0033


----------------------------------------- Iteration    1(   1)  ---------------------------------------


    POTLOK:  cpu time    0.1075: real time    0.1079
    SETDIJ:  cpu time    0.0170: real time    0.0171
     EDDAV:  cpu time   25.1769: real time   25.1874
       DOS:  cpu time    0.0019: real time    0.0019
    --------------------------------------------
      LOOP:  cpu time   25.3062: real time   25.3219

 eigenvalue-minimisations  :  3216
 total energy-change (2. order) : 0.6931369E+04  (-0.2007269E+05)
 number of electron     512.0000000 magnetization 
 augmentation part      512.0000000 magnetization 

 Free energy of the ion-electron system (eV)
  ---------------------------------------------------
  alpha Z        PSCENC =       846.55721029
  Ewald energy   TEWEN  =    146502.50159524
  -Hartree energ DENC   =   -175516.65770765
  -exchange      EXHF   =         0.00000000
  -V(xc)+E(xc)   XCENC  =     -2302.28756897
  PAW double counting   =     29142.66647609   -25101.79547549
  entropy T*S    EENTRO =        -0.00075161
  eigenvalues    EBANDS =      1128.24671257
  atomic energy  EATOM  =     32232.13801203
  Solvation  Ediel_sol  =         0.00000000
  ---------------------------------------------------
  free energy    TOTEN  =      6931.36850250 eV

  energy without entropy =     6931.36925411  energy(sigma->0) =     6931.36869040


--------------------------------------------------------------------------------------------------------




----------------------------------------- Iteration    1(   2)  ---------------------------------------


     EDDAV:  cpu time   25.1487: real time   25.1488
       DOS:  cpu time    0.0019: real time    0.0019
    --------------------------------------------
      LOOP:  cpu time   25.1527: real time   25.1542

 eigenvalue-minimisations  :  3216
 total energy-change (2. order) :-0.5738368E+04  (-0.5545575E+04)
 number of electron     512.0000000 magnetization 
 augmentation part      512.0000000 magnetization 

 Free energy of the ion-electron system (eV)
  ---------------------------------------------------
  alpha Z        PSCENC =       846.55721029
  Ewald energy   TEWEN  =    146502.50159524
  -Hartree energ DENC   =   -175516.65770765
  -exchange      EXHF   =         0.00000000
  -V(xc)+E(xc)   XCENC  =     -2302.28756897
  PAW double counting   =     29142.66647609   -25101.79547549
  entropy T*S    EENTRO =         0.00460322
  eigenvalues    EBANDS =     -4610.12634260
  atomic energy  EATOM  =     32232.13801203
  Solvation  Ediel_sol  =         0.00000000
  ---------------------------------------------------
  free energy    TOTEN  =      1193.00080216 eV

  energy without entropy =     1192.99619894  energy(sigma->0) =     1192.99965135


--------------------------------------------------------------------------------------------------------




----------------------------------------- Iteration    1(   3)  ---------------------------------------


     EDDAV:  cpu time   39.1014: real time   39.1017
       DOS:  cpu time    0.0020: real time    0.0020
    --------------------------------------------
      LOOP:  cpu time   39.1049: real time   39.1068

 eigenvalue-minimisations  :  5520
 total energy-change (2. order) :-0.1805224E+04  (-0.1747548E+04)
 number of electron     512.0000000 magnetization 
 augmentation part      512.0000000 magnetization 

 Free energy of the ion-electron system (eV)
  ---------------------------------------------------
  alpha Z        PSCENC =       846.55721029
  Ewald energy   TEWEN  =    146502.50159524
  -Hartree energ DENC   =   -175516.65770765
  -exchange      EXHF   =         0.00000000
  -V(xc)+E(xc)   XCENC  =     -2302.28756897
  PAW double counting   =     29142.66647609   -25101.79547549
  entropy T*S    EENTRO =         0.00102152
  eigenvalues    EBANDS =     -6415.34645918
  atomic energy  EATOM  =     32232.13801203
  Solvation  Ediel_sol  =         0.00000000
  ---------------------------------------------------
  free energy    TOTEN  =      -612.22289613 eV

  energy without entropy =     -612.22391764  energy(sigma->0) =     -612.22315151


--------------------------------------------------------------------------------------------------------




----------------------------------------- Iteration    1(   4)  ---------------------------------------


     EDDAV:  cpu time   33.4900: real time   33.4912
       DOS:  cpu time    0.0016: real time    0.0016
    --------------------------------------------
      LOOP:  cpu time   33.4929: real time   33.4956

 eigenvalue-minimisations  :  4592
 total energy-change (2. order) :-0.2677143E+03  (-0.2601873E+03)
 number of electron     512.0000000 magnetization 
 augmentation part      512.0000000 magnetization 

 Free energy of the ion-electron system (eV)
  ---------------------------------------------------
  alpha Z        PSCENC =       846.55721029
  Ewald energy   TEWEN  =    146502.50159524
  -Hartree energ DENC   =   -175516.65770765
  -exchange      EXHF   =         0.00000000
  -V(xc)+E(xc)   XCENC  =     -2302.28756897
  PAW double counting   =     29142.66647609   -25101.79547549
  entropy T*S    EENTRO =        -0.00457621
  eigenvalues    EBANDS =     -6683.05517758
  atomic energy  EATOM  =     32232.13801203
  Solvation  Ediel_sol  =         0.00000000
  ---------------------------------------------------
  free energy    TOTEN  =      -879.93721226 eV

  energy without entropy =     -879.93263605  energy(sigma->0) =     -879.93606821


--------------------------------------------------------------------------------------------------------




----------------------------------------- Iteration    1(   5)  ---------------------------------------


     EDDAV:  cpu time   39.5515: real time   39.5517
       DOS:  cpu time    0.0018: real time    0.0018
    CHARGE:  cpu time    0.3838: real time    0.3842
    MIXING:  cpu time    0.0071: real time    0.0076
    --------------------------------------------
      LOOP:  cpu time   39.9457: real time   39.9483

 eigenvalue-minimisations  :  5592
 total energy-change (2. order) :-0.1935639E+02  (-0.1887937E+02)
 number of electron     511.9999984 magnetization 
 augmentation part       61.7708297 magnetization 

 Broyden mixing:
  rms(total) = 0.88538E+01    rms(broyden)= 0.88535E+01
  rms(prec ) = 0.92704E+01
  weight for this iteration     100.00

 Free energy of the ion-electron system (eV)
  ---------------------------------------------------
  alpha Z        PSCENC =       846.55721029
  Ewald energy   TEWEN  =    146502.50159524
  -Hartree energ DENC   =   -175516.65770765
  -exchange      EXHF   =         0.00000000
  -V(xc)+E(xc)   XCENC  =     -2302.28756897
  PAW double counting   =     29142.66647609   -25101.79547549
  entropy T*S    EENTRO =        -0.00832373
  eigenvalues    EBANDS =     -6702.40781949
  atomic energy  EATOM  =     32232.13801203
  Solvation  Ediel_sol  =         0.00000000
  ---------------------------------------------------
  free energy    TOTEN  =      -899.29360169 eV

  energy without entropy =     -899.28527796  energy(sigma->0) =     -899.29152075


--------------------------------------------------------------------------------------------------------




----------------------------------------- Iteration    1(   6)  ---------------------------------------


    POTLOK:  cpu time    0.0995: real time    0.0995
    SETDIJ:  cpu time    0.0100: real time    0.0100
    EDDIAG:  cpu time    1.5515: real time    1.5517
  RMM-DIIS:  cpu time   27.9863: real time   27.9865
    ORTHCH:  cpu time    0.4093: real time    0.4092
       DOS:  cpu time    0.0017: real time    0.0017
    CHARGE:  cpu time    0.3857: real time    0.3857
    MIXING:  cpu time    0.0052: real time    0.0052
    --------------------------------------------
      LOOP:  cpu time   30.4512: real time   30.4534

 eigenvalue-minimisations  :  5024
 total energy-change (2. order) : 0.1172801E+02  (-0.1634170E+03)
 number of electron     511.9999977 magnetization 
 augmentation part       74.9896733 magnetization 

 Broyden mixing:
  rms(total) = 0.51495E+01    rms(broyden)= 0.51491E+01
  rms(prec ) = 0.63124E+01
  weight for this iteration     100.00

 eigenvalues of (default mixing * dielectric matrix)
  average eigenvalue GAMMA=   0.8000
  0.8000

 Free energy of the ion-electron system (eV)
  ---------------------------------------------------
  alpha Z        PSCENC =       846.55721029
  Ewald energy   TEWEN  =    146502.50159524
  -Hartree energ DENC   =   -176603.97654382
  -exchange      EXHF   =         0.00000000
  -V(xc)+E(xc)   XCENC  =     -2252.17095257
  PAW double counting   =     34722.26647303   -30696.29966260
  entropy T*S    EENTRO =        -0.00010281
  eigenvalues    EBANDS =     -5638.58162426
  atomic energy  EATOM  =     32232.13801203
  Solvation  Ediel_sol  =         0.00000000
  ---------------------------------------------------
  free energy    TOTEN  =      -887.56559547 eV

  energy without entropy =     -887.56549266  energy(sigma->0) =     -887.56556977


--------------------------------------------------------------------------------------------------------




----------------------------------------- Iteration    1(   7)  ---------------------------------------


    POTLOK:  cpu time    0.0976: real time    0.0976
    SETDIJ:  cpu time    0.0095: real time    0.0095
    EDDIAG:  cpu time    1.5227: real time    1.5227
  RMM-DIIS:  cpu time   22.7154: real time   22.7155
    ORTHCH:  cpu time    0.4092: real time    0.4092
       DOS:  cpu time    0.0017: real time    0.0017
    CHARGE:  cpu time    0.3906: real time    0.3906
    MIXING:  cpu time    0.0035: real time    0.0035
    --------------------------------------------
      LOOP:  cpu time   25.1523: real time   25.1540

 eigenvalue-minimisations  :  4049
 total energy-change (2. order) :-0.1309192E+01  (-0.4029155E+02)
 number of electron     511.9999984 magnetization 
 augmentation part       72.2210052 magnetization 

 Broyden mixing:
  rms(total) = 0.46312E+01    rms(broyden)= 0.46312E+01
  rms(prec ) = 0.72657E+01
  weight for this iteration     100.00

 eigenvalues of (default mixing * dielectric matrix)
  average eigenvalue GAMMA=   0.6986
  1.0133  0.3839

 Free energy of the ion-electron system (eV)
  ---------------------------------------------------
  alpha Z        PSCENC =       846.55721029
  Ewald energy   TEWEN  =    146502.50159524
  -Hartree energ DENC   =   -175803.36231799
  -exchange      EXHF   =         0.00000000
  -V(xc)+E(xc)   XCENC  =     -2258.74765756
  PAW double counting   =     35847.84201802   -31834.12225148
  entropy T*S    EENTRO =        -0.01050902
  eigenvalues    EBANDS =     -6421.67088684
  atomic energy  EATOM  =     32232.13801203
  Solvation  Ediel_sol  =         0.00000000
  ---------------------------------------------------
  free energy    TOTEN  =      -888.87478732 eV

  energy without entropy =     -888.86427831  energy(sigma->0) =     -888.87216007


--------------------------------------------------------------------------------------------------------




----------------------------------------- Iteration    1(   8)  ---------------------------------------


    POTLOK:  cpu time    0.0957: real time    0.0957
    SETDIJ:  cpu time    0.0095: real time    0.0095
    EDDIAG:  cpu time    1.5421: real time    1.5421
  RMM-DIIS:  cpu time   27.1861: real time   27.1861
    ORTHCH:  cpu time    0.4085: real time    0.4085
       DOS:  cpu time    0.0018: real time    0.0018
    CHARGE:  cpu time    0.3942: real time    0.3942
    MIXING:  cpu time    0.0037: real time    0.0037
    --------------------------------------------
      LOOP:  cpu time   29.6437: real time   29.6454

 eigenvalue-minimisations  :  4858
 total energy-change (2. order) : 0.4828310E+02  (-0.2397899E+02)
 number of electron     511.9999985 magnetization 
 augmentation part       61.8054357 magnetization 

 Broyden mixing:
  rms(total) = 0.38551E+01    rms(broyden)= 0.38551E+01
  rms(prec ) = 0.59024E+01
  weight for this iteration     100.00

 eigenvalues of (default mixing * dielectric matrix)
  average eigenvalue GAMMA=   0.6485
  1.2650  0.4108  0.2695

 Free energy of the ion-electron system (eV)
  ---------------------------------------------------
  alpha Z        PSCENC =       846.55721029
  Ewald energy   TEWEN  =    146502.50159524
  -Hartree energ DENC   =   -176388.04434000
  -exchange      EXHF   =         0.00000000
  -V(xc)+E(xc)   XCENC  =     -2260.45695431
  PAW double counting   =     36960.66225920   -32949.62054785
  entropy T*S    EENTRO =        -0.00263521
  eigenvalues    EBANDS =     -5784.32629045
  atomic energy  EATOM  =     32232.13801203
  Solvation  Ediel_sol  =         0.00000000
  ---------------------------------------------------
  free energy    TOTEN  =      -840.59169107 eV

  energy without entropy =     -840.58905586  energy(sigma->0) =     -840.59103226


--------------------------------------------------------------------------------------------------------




----------------------------------------- Iteration    1(   9)  ---------------------------------------


    POTLOK:  cpu time    0.0954: real time    0.0954
    SETDIJ:  cpu time    0.0094: real time    0.0094
    EDDIAG:  cpu time    1.5373: real time    1.5373
  RMM-DIIS:  cpu time   24.7604: real time   24.7604
    ORTHCH:  cpu time    0.4096: real time    0.4096
       DOS:  cpu time    0.0019: real time    0.0019
    CHARGE:  cpu time    0.3812: real time    0.3812
    MIXING:  cpu time    0.0039: real time    0.0039
    --------------------------------------------
      LOOP:  cpu time   27.2011: real time   27.2027

 eigenvalue-minimisations  :  4414
 total energy-change (2. order) : 0.5079530E+02  (-0.7469401E+01)
 number of electron     511.9999982 magnetization 
 augmentation part       63.4657712 magnetization 

 Broyden mixing:
  rms(total) = 0.23958E+01    rms(broyden)= 0.23958E+01
  rms(prec ) = 0.29393E+01
  weight for this iteration     100.00

 eigenvalues of (default mixing * dielectric matrix)
  average eigenvalue GAMMA=   0.6980
  1.5995  0.4923  0.4923  0.2078

 Free energy of the ion-electron system (eV)
  ---------------------------------------------------
  alpha Z        PSCENC =       846.55721029
  Ewald energy   TEWEN  =    146502.50159524
  -Hartree energ DENC   =   -176227.00132250
  -exchange      EXHF   =         0.00000000
  -V(xc)+E(xc)   XCENC  =     -2258.70790515
  PAW double counting   =     38131.18051261   -34113.97956334
  entropy T*S    EENTRO =         0.00967591
  eigenvalues    EBANDS =     -5902.49460739
  atomic energy  EATOM  =     32232.13801203
  Solvation  Ediel_sol  =         0.00000000
  ---------------------------------------------------
  free energy    TOTEN  =      -789.79639230 eV

  energy without entropy =     -789.80606821  energy(sigma->0) =     -789.79881128


--------------------------------------------------------------------------------------------------------




----------------------------------------- Iteration    1(  10)  ---------------------------------------


    POTLOK:  cpu time    0.0958: real time    0.0958
    SETDIJ:  cpu time    0.0096: real time    0.0096
    EDDIAG:  cpu time    1.5499: real time    1.5499
  RMM-DIIS:  cpu time   23.2837: real time   23.2838
    ORTHCH:  cpu time    0.4095: real time    0.4095
       DOS:  cpu time    0.0019: real time    0.0019
    CHARGE:  cpu time    0.3814: real time    0.3814
    MIXING:  cpu time    0.0043: real time    0.0043
    --------------------------------------------
      LOOP:  cpu time   25.7381: real time   25.7398

 eigenvalue-minimisations  :  4167
 total energy-change (2. order) : 0.9219855E+01  (-0.8523695E+01)
 number of electron     511.9999984 magnetization 
 augmentation part       68.5494151 magnetization 

 Broyden mixing:
  rms(total) = 0.14486E+01    rms(broyden)= 0.14486E+01
  rms(prec ) = 0.17392E+01
  weight for this iteration     100.00

 eigenvalues of (default mixing * dielectric matrix)
  average eigenvalue GAMMA=   0.7404
  1.9705  0.6910  0.4897  0.3617  0.1892

 Free energy of the ion-electron system (eV)
  ---------------------------------------------------
  alpha Z        PSCENC =       846.55721029
  Ewald energy   TEWEN  =    146502.50159524
  -Hartree energ DENC   =   -176384.73167477
  -exchange      EXHF   =         0.00000000
  -V(xc)+E(xc)   XCENC  =     -2253.13206611
  PAW double counting   =     39406.75935670   -35380.76009619
  entropy T*S    EENTRO =        -0.00128351
  eigenvalues    EBANDS =     -5749.90759087
  atomic energy  EATOM  =     32232.13801203
  Solvation  Ediel_sol  =         0.00000000
  ---------------------------------------------------
  free energy    TOTEN  =      -780.57653719 eV

  energy without entropy =     -780.57525368  energy(sigma->0) =     -780.57621631


--------------------------------------------------------------------------------------------------------




----------------------------------------- Iteration    1(  11)  ---------------------------------------


    POTLOK:  cpu time    0.0960: real time    0.0960
    SETDIJ:  cpu time    0.0096: real time    0.0096
    EDDIAG:  cpu time    1.5432: real time    1.5432
  RMM-DIIS:  cpu time   25.6785: real time   25.6785
    ORTHCH:  cpu time    0.4089: real time    0.4089
       DOS:  cpu time    0.0019: real time    0.0019
    CHARGE:  cpu time    0.3816: real time    0.3816
    MIXING:  cpu time    0.0043: real time    0.0043
    --------------------------------------------
      LOOP:  cpu time   28.1259: real time   28.1280

 eigenvalue-minimisations  :  4594
 total energy-change (2. order) : 0.1811624E+01  (-0.4271657E+01)
[...]
   -.378E+02 -.119E+02 0.519E+03   0.369E+02 0.118E+02 -.520E+03   0.128E+01 0.160E+00 0.164E+00   0.511E-03 -.239E-02 -.240E-02
   0.458E+02 0.102E+02 -.656E+03   -.471E+02 -.114E+02 0.657E+03   0.135E+01 0.125E+01 -.658E+00   -.751E-03 0.104E-03 -.176E-02
   0.168E+03 -.206E+02 0.494E+03   -.167E+03 0.206E+02 -.495E+03   -.162E+01 0.394E+00 0.706E+00   -.118E-02 -.625E-03 -.136E-02
   0.273E+03 0.739E+01 -.517E+03   -.273E+03 -.630E+01 0.518E+03   -.148E+00 -.111E+01 -.916E+00   -.640E-03 0.572E-03 -.336E-02
   0.112E+03 -.812E+02 0.175E+03   -.111E+03 0.820E+02 -.177E+03   -.892E+00 -.849E+00 0.254E+01   -.739E-03 0.477E-03 -.277E-02
   0.116E+03 -.533E+02 0.660E+03   -.115E+03 0.534E+02 -.657E+03   -.790E+00 -.158E+00 -.277E+01   0.709E-03 -.615E-03 0.691E-03
   -.177E+03 0.642E+02 0.998E+02   0.178E+03 -.640E+02 -.101E+03   -.111E+01 -.175E+00 0.668E+00   0.118E-04 -.168E-02 -.331E-02
   -.999E+02 0.603E+02 0.712E+03   0.993E+02 -.597E+02 -.709E+03   0.391E+00 -.385E+00 -.282E+01   -.419E-03 0.123E-02 -.862E-04
   0.710E+02 -.261E+02 0.429E+03   -.718E+02 0.252E+02 -.429E+03   0.968E+00 0.960E+00 -.864E+00   -.179E-02 0.519E-03 -.210E-02
   0.565E+02 0.462E+01 -.436E+03   -.564E+02 -.439E+01 0.438E+03   -.402E-01 -.224E+00 -.227E+01   -.102E-02 0.444E-03 -.218E-02
   -.129E+03 -.204E+02 -.566E+03   0.129E+03 0.198E+02 0.564E+03   -.348E+00 0.574E+00 0.124E+01   0.355E-05 -.624E-03 -.143E-02
   -.158E+03 0.152E+01 0.453E+03   0.157E+03 -.154E+01 -.453E+03   0.311E+00 -.236E+00 -.152E+00   0.462E-04 0.160E-02 -.242E-02
   -.148E+03 -.500E+01 0.677E+03   0.147E+03 0.500E+01 -.674E+03   0.779E+00 -.546E-01 -.268E+01   -.101E-02 -.718E-03 0.278E-03
   -.181E+03 0.522E+02 0.155E+03   0.181E+03 -.524E+02 -.157E+03   0.387E-01 0.253E+00 0.185E+01   0.510E-03 -.828E-03 -.268E-02
   0.586E+02 0.226E+02 0.463E+03   -.582E+02 -.222E+02 -.464E+03   -.227E+00 -.347E-01 -.394E+00   0.621E-03 -.616E-03 -.205E-02
   0.109E+03 -.504E+01 -.537E+03   -.108E+03 0.636E+01 0.536E+03   -.117E+01 -.132E+01 0.709E+00   -.125E-02 -.525E-03 -.127E-02
   0.640E+02 -.320E+02 0.212E+03   -.641E+02 0.324E+02 -.215E+03   0.465E-01 -.349E+00 0.276E+01   -.136E-02 -.497E-03 -.192E-02
   0.318E+02 0.141E+01 0.692E+03   -.324E+02 -.146E+01 -.690E+03   0.501E+00 0.110E-01 -.251E+01   0.134E-03 0.309E-03 -.131E-03
   0.125E+03 -.692E+01 0.440E+03   -.124E+03 0.684E+01 -.440E+03   -.935E+00 0.799E+00 -.629E+00   -.177E-02 0.326E-03 -.104E-02
   0.100E+03 0.471E+02 -.601E+03   -.995E+02 -.455E+02 0.600E+03   -.629E+00 -.158E+01 0.730E+00   -.783E-03 0.734E-04 -.119E-02
   0.138E+03 0.170E+02 0.506E+03   -.139E+03 -.170E+02 -.508E+03   0.271E+00 -.174E+00 0.135E+01   -.524E-03 0.739E-03 -.735E-03
   0.944E+02 -.392E+02 -.433E+03   -.957E+02 0.400E+02 0.433E+03   0.138E+01 -.817E+00 0.697E+00   0.810E-03 -.211E-03 -.214E-02
   0.126E+03 0.361E+02 0.636E+03   -.126E+03 -.358E+02 -.633E+03   0.171E+00 -.522E+00 -.298E+01   -.162E-03 0.819E-03 0.860E-03
   0.187E+03 0.105E+03 0.145E+03   -.186E+03 -.105E+03 -.145E+03   -.770E+00 0.120E+00 0.309E-01   -.716E-04 -.186E-03 -.278E-02
   -.958E+02 -.169E+01 0.683E+03   0.961E+02 0.169E+01 -.679E+03   -.570E+00 0.279E-01 -.327E+01   0.183E-03 0.550E-03 -.358E-03
   -.145E+03 -.432E+02 0.152E+03   0.145E+03 0.432E+02 -.153E+03   0.158E+00 0.262E-01 0.436E+00   -.393E-04 0.738E-03 -.349E-02
   0.127E+03 0.310E+02 0.662E+03   -.127E+03 -.313E+02 -.659E+03   -.207E+00 0.400E+00 -.247E+01   0.254E-03 -.399E-03 -.241E-03
   0.151E+03 -.215E+02 0.131E+03   -.151E+03 0.221E+02 -.134E+03   -.825E-02 -.679E+00 0.311E+01   -.182E-02 -.458E-03 -.262E-02
   0.103E+03 -.452E+02 -.580E+03   -.102E+03 0.429E+02 0.579E+03   -.596E+00 0.232E+01 0.172E+01   -.572E-03 -.268E-04 -.183E-02
   0.114E+03 0.147E+02 0.467E+03   -.114E+03 -.149E+02 -.467E+03   0.356E+00 -.166E+00 -.480E+00   -.725E-03 -.301E-03 -.161E-02
   0.474E+02 -.161E+00 0.451E+03   -.474E+02 0.122E+00 -.452E+03   0.243E+00 0.990E-02 0.628E+00   0.906E-03 0.435E-03 -.117E-02
   -.127E+02 0.214E+02 -.399E+03   0.128E+02 -.222E+02 0.399E+03   -.122E+00 0.836E+00 0.279E+00   0.893E-03 0.750E-03 -.217E-02
   -.366E+02 0.320E+00 0.637E+03   0.370E+02 -.160E-02 -.634E+03   -.115E+00 -.208E+00 -.304E+01   0.470E-03 -.133E-03 0.774E-03
   -.131E+03 -.295E+02 0.151E+03   0.131E+03 0.299E+02 -.151E+03   -.467E+00 -.341E+00 0.358E+00   0.106E-02 0.774E-03 -.319E-02
   0.525E+02 -.549E+01 0.622E+03   -.525E+02 0.473E+01 -.619E+03   0.197E-01 0.263E+00 -.323E+01   0.818E-03 -.406E-03 0.973E-03
   0.638E+02 0.308E+02 0.714E+02   -.637E+02 -.311E+02 -.715E+02   -.157E+00 0.294E+00 0.101E+00   0.811E-03 0.628E-03 -.299E-02
   -.588E+02 0.300E+01 0.433E+03   0.590E+02 -.255E+01 -.433E+03   0.119E+00 0.219E+00 -.487E-01   0.708E-04 0.378E-03 -.121E-02
   -.860E+02 -.581E+02 -.406E+03   0.875E+02 0.584E+02 0.406E+03   -.147E+01 -.267E+00 -.226E-01   0.118E-02 0.296E-03 -.200E-02
   0.444E+02 0.343E+01 0.635E+03   -.437E+02 -.333E+01 -.631E+03   -.880E+00 -.336E+00 -.335E+01   -.687E-05 0.208E-03 0.534E-03
   0.192E+02 -.825E+02 0.118E+03   -.192E+02 0.830E+02 -.119E+03   -.307E-01 -.486E+00 0.307E+00   0.128E-02 -.771E-03 -.393E-02
   -.921E+02 -.816E+01 0.442E+03   0.914E+02 0.754E+01 -.443E+03   0.915E+00 -.718E-01 0.102E+01   0.166E-02 -.214E-03 -.207E-02
   -.157E+03 -.129E+02 -.484E+03   0.155E+03 0.122E+02 0.484E+03   0.194E+01 0.695E+00 0.711E+00   0.108E-02 -.531E-03 -.193E-02
   0.621E+02 0.444E+02 -.399E+03   -.615E+02 -.441E+02 0.399E+03   -.622E+00 -.250E+00 -.245E+00   0.122E-02 -.680E-03 -.292E-02
   0.573E+02 -.609E+00 0.434E+03   -.567E+02 0.456E+00 -.435E+03   -.100E+01 0.421E+00 -.392E-02   0.518E-03 -.646E-03 -.933E-03
   -.142E+03 -.434E+02 0.709E+03   0.141E+03 0.429E+02 -.706E+03   0.782E+00 0.161E-01 -.342E+01   0.301E-04 -.113E-02 -.253E-03
   -.115E+03 -.297E+02 0.191E+03   0.115E+03 0.291E+02 -.191E+03   -.949E-01 0.532E+00 0.196E+00   -.585E-04 0.137E-02 -.338E-02
   -.144E+03 0.119E+02 0.433E+03   0.144E+03 -.116E+02 -.433E+03   0.319E+00 0.188E+00 0.248E+00   0.822E-03 -.136E-02 -.142E-02
   -.181E+03 0.271E+01 -.566E+03   0.180E+03 -.204E+01 0.565E+03   0.695E+00 -.668E+00 0.102E+01   0.575E-03 0.406E-03 -.137E-02
   0.160E+03 0.246E+02 -.928E+03   -.161E+03 -.234E+02 0.935E+03   0.910E+00 -.119E+01 -.691E+01   0.204E-03 -.943E-03 -.205E-02
   -.156E+03 0.187E+02 -.107E+04   0.160E+03 -.201E+02 0.109E+04   -.319E+01 0.135E+01 -.179E+02   0.840E-03 0.112E-03 -.101E-02
   0.198E+03 0.121E+02 -.904E+03   -.197E+03 -.985E+01 0.913E+03   -.111E+01 -.221E+01 -.864E+01   0.671E-03 0.173E-02 -.249E-02
   -.141E+03 0.281E+02 -.729E+03   0.144E+03 -.277E+02 0.732E+03   -.247E+01 -.385E+00 -.326E+01   0.448E-02 -.138E-02 -.329E-02
   0.169E+03 0.116E+01 -.103E+04   -.171E+03 -.444E+01 0.105E+04   0.162E+01 0.329E+01 -.178E+02   0.227E-03 -.283E-03 -.341E-02
   0.132E+03 -.148E+02 -.109E+04   -.129E+03 0.203E+02 0.111E+04   -.261E+01 -.549E+01 -.197E+02   -.229E-02 0.226E-03 -.171E-02
   -.984E+02 -.749E+02 -.126E+04   0.100E+03 0.763E+02 0.128E+04   -.174E+01 -.144E+01 -.204E+02   0.343E-03 0.241E-03 -.667E-03
   0.104E+03 0.519E+00 -.123E+04   -.106E+03 0.564E+00 0.126E+04   0.157E+01 -.109E+01 -.236E+02   -.160E-02 0.221E-04 0.875E-03
   0.279E+02 -.228E+02 -.102E+04   -.295E+02 0.189E+02 0.104E+04   0.154E+01 0.394E+01 -.193E+02   0.119E-02 -.132E-02 -.666E-03
   0.143E+03 0.703E+01 -.113E+04   -.149E+03 0.242E+00 0.114E+04   0.607E+01 -.727E+01 -.156E+02   -.119E-03 0.833E-03 -.813E-03
   0.121E+03 -.191E+02 -.112E+04   -.122E+03 0.123E+02 0.114E+04   0.147E+01 0.677E+01 -.193E+02   -.100E-02 0.141E-02 -.157E-02
   -.228E+03 -.447E+02 -.125E+04   0.229E+03 0.450E+02 0.127E+04   -.128E+01 -.232E+00 -.204E+02   -.251E-03 -.307E-02 0.516E-03
   -.273E+03 0.225E+01 -.105E+04   0.273E+03 0.255E+01 0.107E+04   0.277E-01 -.480E+01 -.111E+02   0.981E-03 0.378E-02 -.544E-03
   0.101E+03 0.637E+02 -.121E+04   -.973E+02 -.634E+02 0.123E+04   -.358E+01 -.261E+00 -.221E+02   -.182E-02 -.123E-02 -.104E-02
   -.959E+02 -.873E+02 -.748E+03   0.963E+02 0.942E+02 0.751E+03   -.442E+00 -.695E+01 -.286E+01   -.364E-02 -.205E-02 -.461E-02
   0.143E+03 -.868E+02 -.244E+03   -.142E+03 0.880E+02 0.244E+03   -.121E+01 -.125E+01 0.973E-01   0.476E-03 -.263E-02 -.656E-02
   -.175E+03 -.144E+02 -.197E+03   0.173E+03 0.145E+02 0.198E+03   0.194E+01 -.137E+00 -.816E+00   0.809E-03 0.606E-03 -.472E-02
   0.106E+03 0.279E+01 0.145E+03   -.109E+03 -.279E+01 -.145E+03   0.268E+01 -.394E-02 0.541E+00   0.340E-02 -.447E-03 -.645E-02
   -.306E+03 -.619E+02 -.763E+02   0.310E+03 0.640E+02 0.771E+02   -.367E+01 -.214E+01 -.800E+00   0.676E-03 0.241E-02 -.297E-02
   0.362E+03 0.342E+02 0.193E+03   -.367E+03 -.358E+02 -.196E+03   0.435E+01 0.160E+01 0.263E+01   -.706E-05 0.252E-02 -.225E-02
   0.210E+03 -.614E+01 -.307E+03   -.210E+03 0.556E+01 0.304E+03   0.297E+00 0.579E+00 0.308E+01   -.194E-02 -.367E-03 -.222E-02
   -.215E+02 0.152E+02 -.133E+03   0.237E+02 -.158E+02 0.134E+03   -.221E+01 0.643E+00 -.670E+00   0.177E-02 0.151E-03 -.412E-02
   0.143E+03 -.128E+03 -.319E+03   -.139E+03 0.131E+03 0.319E+03   -.414E+01 -.383E+01 -.207E+00   -.395E-02 0.477E-03 -.464E-02
   -.147E+03 -.461E+01 0.106E+03   0.146E+03 0.272E+01 -.106E+03   0.647E+00 0.190E+01 -.679E+00   0.370E-02 -.418E-03 -.580E-02
   -.206E+03 0.330E+02 -.229E+03   0.204E+03 -.390E+02 0.224E+03   0.262E+01 0.606E+01 0.458E+01   0.849E-03 0.103E-02 -.436E-02
   -.928E+02 -.426E+02 -.138E+03   0.959E+02 0.470E+02 0.138E+03   -.315E+01 -.437E+01 -.204E-01   -.351E-03 0.107E-02 -.561E-02
   -.174E+03 0.146E+03 -.978E+02   0.172E+03 -.150E+03 0.101E+03   0.139E+01 0.487E+01 -.299E+01   -.121E-02 -.321E-02 -.372E-02
   0.284E+03 0.161E+03 -.293E+03   -.284E+03 -.167E+03 0.294E+03   0.518E-01 0.606E+01 -.749E+00   -.147E-02 0.874E-03 -.458E-02
 -----------------------------------------------------------------------------------------------
   0.737E+00 0.456E+01 0.242E+03   0.568E-13 -.682E-12 -.125E-11   -.739E+00 -.456E+01 -.241E+03   -.118E-01 0.449E-03 -.218E+00
 
 
 POSITION                                       TOTAL-FORCE (eV/Angst)
 -----------------------------------------------------------------------------------
      8.57631      8.29685     10.39845        -0.042240     -0.181948      0.110135
      8.60885      3.76973     14.87668         0.001848      0.011132      0.025822
      8.42115      6.29407     17.65403        -0.000574      0.004728     -0.006755
      8.51616      0.79995     12.43874         0.096387     -0.101797      0.567603
     13.28536      5.98908     15.16004        -0.002010      0.005487      0.001434
     13.49094      1.15316     10.44749         0.000183     -0.445177      0.029241
     10.03344      3.28428     12.67411         0.596782      0.099992     -0.526645
     10.16390      8.84931     17.62607        -0.003974     -0.001714     -0.001595
      7.12524      5.81577     10.15765        -0.154614     -0.397624      0.926673
      6.88760      1.19514     15.29108        -0.003698     -0.003571      0.010749
      8.51222      3.28036     10.20450         0.212359      0.026956      0.749267
      8.39935      8.40237     14.95846         0.001444     -0.000271     -0.004639
     10.22263      8.06723     12.77991         0.199679      0.697020     -0.788426
     10.62419      3.90125     18.09353        -0.000365      0.006144      0.004657
      5.42664      8.10481     10.20639         0.281269      0.110216      0.858204
      5.55598      3.41797     14.79825        -0.001063      0.001204      0.001321
      8.52843      5.75423     12.65640         0.320304      0.037936     -0.476912
      8.63876      1.43629     17.86839        -0.000793      0.004118     -0.004553
      3.84829      7.97317     12.47259        -0.597164      0.416863      0.000673
      3.99426      3.49191     17.20385        -0.024507     -0.012759     -0.024259
      3.83988      5.60335     14.99411         0.004270      0.007746     -0.000826
      3.90063      0.73891     10.00000         0.462223     -0.128941      0.254636
     10.42692      5.67282     15.64987        -0.006518     -0.000071     -0.005107
     10.19112      1.10470     10.13736        -0.249688      0.135679      0.400854
      6.82945      7.99424     12.66670         0.122784      0.044273     -0.808449
      7.10923      3.74809     17.40164        -0.001015      0.000044      0.003868
     11.90544      6.61302     18.32073        -0.009802     -0.003050     -0.002565
     11.66772      1.05372     12.57547        -0.494982     -0.254626     -0.450922
     11.73919      3.33868     10.41199        -0.274657     -0.052394      0.567512
     11.50358      8.03226     15.16649        -0.004242      0.001314     -0.000469
      7.18522      3.24644     12.75390         0.180068      0.444923     -1.212769
      7.24454      8.76383     17.89700         0.002369     -0.002596     -0.002231
      6.90751      5.83608     14.88067        -0.000741      0.000768      0.003391
      6.87795      0.97560     10.08695        -0.121893     -0.039521      0.274225
      5.51084      5.55012     12.48419        -0.273143      0.717114     -0.108503
      5.57377      1.18666     18.10068         0.001616      0.006461      0.007725
      3.51249      3.50019     12.83519        -0.214578     -0.106371     -0.394142
      3.26720      8.85702     17.79708         0.011348      0.005015     -0.006776
      3.46798      5.87237     10.40868         0.039492     -0.267828     -0.170864
      3.41312      1.26639     14.97521         0.002309      0.000875     -0.000089
     11.91771      8.21633     10.24534        -0.307033      0.028397      0.654408
     11.92228      3.48490     15.25418         0.001629     -0.000606     -0.001043
      5.24135      3.36543     10.32679         0.093104      0.103184      0.036205
      5.27142      8.23514     15.08067         0.001686     -0.002449     -0.002938
      5.33460      6.45923     17.90358        -0.000281     -0.000462      0.000428
      5.28930      0.99064     12.60849         0.200604     -0.328289     -0.449514
      1.60538      5.84491     12.85122         0.175709     -0.028700     -0.508159
      1.54839      1.61305     17.68444         0.002356     -0.004812     -0.001601
     13.72038      5.67134     10.18293         0.213124      0.110760      0.568893
     13.52974      0.83452     15.16730         0.000520     -0.000782     -0.002616
      1.63456      8.33987     10.36453        -0.025864     -0.499985      0.078671
      1.32588      3.66897     15.30761        -0.000572      0.000949     -0.002410
     13.76831      3.16119     12.53308         0.323370      0.668751     -0.171382
      0.37152      8.41183     17.66450         0.002242     -0.000801     -0.000547
      1.99440      3.17314     10.17666        -0.156465     -0.239857      0.634447
      2.10383      8.12865     15.13952         0.002582      0.001124     -0.001734
     13.48051      8.37930     12.86886         0.164984     -0.688967     -0.171383
     13.50978      4.10509     18.12420         0.000134     -0.004432      0.002173
      2.12013      5.98519     17.46253         0.002800      0.003958     -0.003721
      2.02729      0.87737     12.46815        -0.413975      0.267055     -0.653471
     10.07171      5.79402     10.14663         0.132794     -0.577560      0.181174
     10.05138      1.18418     15.09248        -0.001079     -0.000603     -0.001000
     11.97051      5.66181     12.67660        -0.422875      0.405077     -0.089023
     12.24336      1.31017     18.15529         0.002521     -0.000463      0.000279
      5.22785      8.61700     18.26504        -0.005859      0.000987      0.011244
      0.11882      2.25647     19.09772        -0.002892     -0.000895      0.002690
      3.52339      1.33268     18.26083        -0.001287     -0.005052      0.009047
      0.05532      6.25889     18.05381        -0.001451     -0.002905      0.005890
      3.80221      5.18810     18.48611         0.001696      0.000113      0.007618
      5.56048      3.13719     18.43575         0.003552     -0.005751      0.007475
     10.30279      0.89091     18.96914        -0.004626     -0.005502      0.003809
      7.21545      0.79025     19.11157         0.000215     -0.006192     -0.000759
      2.09542      7.74561     18.77967        -0.004195      0.000126      0.004502
      8.75308      3.40364     18.55891        -0.001713      0.004344      0.005946
      7.04940      5.52385     18.52359        -0.002215      0.002541      0.003218
     11.92363      4.89403     19.30568        -0.002617      0.002369      0.003815
     12.18766      8.54271     18.66069        -0.002956      0.000230      0.001603
      8.71505      7.76377     18.64934        -0.005296      0.003045     -0.005658
     10.15705      5.80891     17.83819        -0.005508      0.004159     -0.002517
      3.76290      7.16423     16.44780        -0.001221     -0.002588      0.002148
     13.57541      2.55644     16.53270        -0.000466      0.003185      0.007126
      1.73267      5.93254     15.17182         0.003635     -0.001531      0.002913
     11.66608      0.14158     16.28577         0.004224     -0.000581     -0.000048
      3.44617      3.54251     14.98845         0.000567      0.008723      0.002109
      6.98104      7.28588     16.48750        -0.008263     -0.004752      0.000129
      8.33896      5.08102     16.24498        -0.005847     -0.000876     -0.002328
      5.40165      4.96573     16.36305        -0.003832     -0.003292      0.013651
     13.66482      8.15891     15.36716         0.001487      0.005750     -0.001160
     10.85831      2.36230     16.84550        -0.000315     -0.001054      0.009962
      8.44412      2.41620     16.11804        -0.003853     -0.003121      0.004428
      9.73351      7.45348     16.15547         0.002535      0.003108      0.000562
      4.98483      1.82381     16.27604         0.000010      0.009176      0.005952
 -----------------------------------------------------------------------------------
    total drift:                               -0.014501      0.001412     -0.007412


--------------------------------------------------------------------------------------------------------



  FREE ENERGIE OF THE ION-ELECTRON SYSTEM (eV)
  ---------------------------------------------------
  free  energy   TOTEN  =      -774.38662749 eV

  energy  without entropy=     -774.38806189  energy(sigma->0) =     -774.38698609
 


--------------------------------------------------------------------------------------------------------


    POTLOK:  cpu time    0.1127: real time    0.1133


--------------------------------------------------------------------------------------------------------


     LOOP+:  cpu time  960.5130: real time  960.6412
    4ORBIT:  cpu time    0.0000: real time    0.0000

 total amount of memory used by VASP on root node   145045. kBytes
========================================================================

   base      :      30000. kBytes
   nonl-proj :      29388. kBytes
   fftplans  :       6516. kBytes
   grid      :      15878. kBytes
   one-center:         62. kBytes
   wavefun   :      63201. kBytes
 
  
  
 General timing and accounting informations for this job:
 ========================================================
  
                  Total CPU time used (sec):      980.189
                            User time (sec):      976.602
                          System time (sec):        3.587
                         Elapsed time (sec):      980.324
  
                   Maximum memory used (kb):      180980.
                   Average memory used (kb):           0.
  
                          Minor page faults:        53904
                          Major page faults:            0
                 Voluntary context switches:         1411
