 vasp.5.4.1 05Feb16 (build Mar 19 2020 08:54:17) complex                        
  
 executed on           IFC91_ompi date 2021.11.07  22:32:47
 running on   48 total cores
 distrk:  each k-point on   48 cores,    1 groups
 distr:  one band on NCORES_PER_BAND=  24 cores,    2 groups


--------------------------------------------------------------------------------------------------------


 INCAR:
 POTCAR:    PAW_PBE Al 04Jan2001                  
 POTCAR:    PAW_PBE Nb_sv 25May2007               
 POTCAR:    PAW_PBE Ta 17Jan2003                  
 POTCAR:    PAW_PBE Ti 08Apr2002                  
 POTCAR:   PAW_PBE Zr 08Apr2002                   
 POTCAR:    PAW_PBE O 08Apr2002                   

 ----------------------------------------------------------------------------- 
|                                                                             |
|           W    W    AA    RRRRR   N    N  II  N    N   GGGG   !!!           |
|           W    W   A  A   R    R  NN   N  II  NN   N  G    G  !!!           |
|           W    W  A    A  R    R  N N  N  II  N N  N  G       !!!           |
|           W WW W  AAAAAA  RRRRR   N  N N  II  N  N N  G  GGG   !            |
|           WW  WW  A    A  R   R   N   NN  II  N   NN  G    G                |
|           W    W  A    A  R    R  N    N  II  N    N   GGGG   !!!           |
|                                                                             |
|      For optimal performance we recommend to set                            |
|        NCORE= 4 - approx SQRT( number of cores)                             |
|      NCORE specifies how many cores store one orbital (NPAR=cpu/NCORE).     |
|      This setting can  greatly improve the performance of VASP for DFT.     |
|      The default, NPAR=number of cores might be grossly inefficient         |
|      on modern multi-core architectures or massively parallel machines.     |
|      Do your own testing !!!!                                               |
|      Unfortunately you need to use the default for GW and RPA calculations. |
|      (for HF NCORE is supported but not extensively tested yet)             |
|                                                                             |
 ----------------------------------------------------------------------------- 

 POTCAR:    PAW_PBE Al 04Jan2001                  
   VRHFIN =Al: s2p1                                                             
   LEXCH  = PE                                                                  
   EATOM  =    53.5387 eV,    3.9350 Ry                                         
                                                                                
   TITEL  = PAW_PBE Al 04Jan2001                                                
   LULTRA =        F    use ultrasoft PP ?                                      
   IUNSCR =        1    unscreen: 0-lin 1-nonlin 2-no                           
   RPACOR =    1.500    partial core radius                                     
   POMASS =   26.981; ZVAL   =    3.000    mass and valenz                      
   RCORE  =    1.900    outmost cutoff radius                                   
   RWIGS  =    2.650; RWIGS  =    1.402    wigner-seitz radius (au A)           
   ENMAX  =  240.300; ENMIN  =  180.225 eV                                      
   ICORE  =        2    local potential                                         
   LCOR   =        T    correct aug charges                                     
   LPAW   =        T    paw PP                                                  
   EAUG   =  291.052                                                            
   DEXC   =    0.000                                                            
   RMAX   =    1.939    core radius for proj-oper                               
   RAUG   =    1.300    factor for augmentation sphere                          
   RDEP   =    1.966    radius for radial grids                                 
   RDEPT  =    1.856    core radius for aug-charge                              
                                                                                
   Atomic configuration                                                         
    6 entries                                                                   
     n  l   j            E        occ.                                          
     1  0  0.50     -1511.1048   2.0000                                         
     2  0  0.50      -108.1629   2.0000                                         
     2  1  1.50       -69.6402   6.0000                                         
     3  0  0.50        -7.7528   2.0000                                         
     3  1  1.50        -2.7121   1.0000                                         
     3  2  2.50        -2.7212   0.0000                                         
   Description                                                                  
     l       E           TYP  RCUT    TYP  RCUT                                 
     0     -7.7528455     23  1.900                                             
     0     -3.3096929     23  1.900                                             
     1     -2.7120682     23  1.900                                             
     1     13.6058260     23  1.900                                             
     2     -2.7211652      7  1.900                                             
  local pseudopotential read in
  partial core-charges read in
  partial kinetic energy density read in
  atomic valenz-charges read in
  non local Contribution for L=           0  read in
    real space projection operators read in
  non local Contribution for L=           0  read in
    real space projection operators read in
  non local Contribution for L=           1  read in
    real space projection operators read in
  non local Contribution for L=           1  read in
    real space projection operators read in
    PAW grid and wavefunctions read in
 
   number of l-projection  operators is LMAX  =           4
   number of lm-projection operators is LMMAX =           8
 
 POTCAR:    PAW_PBE Nb_sv 25May2007               
   VRHFIN =Nb: 4p5s4d                                                           
   LEXCH  = PE                                                                  
   EATOM  =  1555.1913 eV,  114.3033 Ry                                         
                                                                                
   TITEL  = PAW_PBE Nb_sv 25May2007                                             
   LULTRA =        F    use ultrasoft PP ?                                      
   IUNSCR =        1    unscreen: 0-lin 1-nonlin 2-no                           
   RPACOR =    1.800    partial core radius                                     
   POMASS =   92.910; ZVAL   =   13.000    mass and valenz                      
   RCORE  =    2.400    outmost cutoff radius                                   
   RWIGS  =    2.400; RWIGS  =    1.270    wigner-seitz radius (au A)           
   ENMAX  =  293.235; ENMIN  =  219.927 eV                                      
   ICORE  =        3    local potential                                         
   LCOR   =        T    correct aug charges                                     
   LPAW   =        T    paw PP                                                  
   EAUG   =  455.659                                                            
   DEXC   =    0.000                                                            
   RMAX   =    2.456    core radius for proj-oper                               
   RAUG   =    1.300    factor for augmentation sphere                          
   RDEP   =    2.451    radius for radial grids                                 
   RDEPT  =    1.956    core radius for aug-charge                              
                                                                                
   Atomic configuration                                                         
   11 entries                                                                   
     n  l   j            E        occ.                                          
     1  0  0.50    -18805.2457   2.0000                                         
     2  0  0.50     -2630.2869   2.0000                                         
     2  1  1.50     -2348.4046   6.0000                                         
     3  0  0.50      -438.8757   2.0000                                         
     3  1  1.50      -346.7588   6.0000                                         
     3  2  2.50      -196.2560  10.0000                                         
     4  0  0.50       -58.3859   2.0000                                         
     5  0  0.50        -3.9816   1.0000                                         
     4  1  1.50       -34.5141   6.0000                                         
     4  2  2.50        -3.0408   4.0000                                         
     4  3  2.50        -1.3606   0.0000                                         
   Description                                                                  
     l       E           TYP  RCUT    TYP  RCUT                                 
     0    -58.3859094     23  2.200                                             
     0     -3.9816262     23  2.200                                             
     1    -34.5140738     23  2.200                                             
     1     13.6058260     23  2.200                                             
     2     -3.0408010     23  2.200                                             
     2     -0.1283038     23  2.200                                             
     3     -1.3605826     23  2.400                                             
  local pseudopotential read in
  partial core-charges read in
  partial kinetic energy density read in
  atomic valenz-charges read in
  non local Contribution for L=           0  read in
    real space projection operators read in
  non local Contribution for L=           0  read in
    real space projection operators read in
  non local Contribution for L=           1  read in
    real space projection operators read in
  non local Contribution for L=           1  read in
    real space projection operators read in
  non local Contribution for L=           2  read in
    real space projection operators read in
  non local Contribution for L=           2  read in
    real space projection operators read in
    PAW grid and wavefunctions read in
 
   number of l-projection  operators is LMAX  =           6
   number of lm-projection operators is LMMAX =          18
 
 POTCAR:    PAW_PBE Ta 17Jan2003                  
   VRHFIN =Ta:  6s5d                                                            
   LEXCH  = PE                                                                  
   EATOM  =   130.6506 eV,    9.6025 Ry                                         
                                                                                
   TITEL  = PAW_PBE Ta 17Jan2003                                                
   LULTRA =        F    use ultrasoft PP ?                                      
   IUNSCR =        1    unscreen: 0-lin 1-nonlin 2-no                           
   RPACOR =    2.330    partial core radius                                     
   POMASS =  180.948; ZVAL   =    5.000    mass and valenz                      
   RCORE  =    2.900    outmost cutoff radius                                   
   RWIGS  =    2.840; RWIGS  =    1.503    wigner-seitz radius (au A)           
   ENMAX  =  223.667; ENMIN  =  167.750 eV                                      
   RCLOC  =    2.205    cutoff for local pot                                    
   LCOR   =        T    correct aug charges                                     
   LPAW   =        T    paw PP                                                  
   EAUG   =  332.075                                                            
   DEXC   =    0.000                                                            
   RMAX   =    2.970    core radius for proj-oper                               
   RAUG   =    1.300    factor for augmentation sphere                          
   RDEP   =    3.060    radius for radial grids                                 
   RDEPT  =    2.354    core radius for aug-charge                              
                                                                                
   Atomic configuration                                                         
   16 entries                                                                   
     n  l   j            E        occ.                                          
     1  0  0.50    -67341.2807   2.0000                                         
     2  0  0.50    -11566.9376   2.0000                                         
     2  1  1.50    -10134.1182   6.0000                                         
     3  0  0.50     -2648.5620   2.0000                                         
     3  1  1.50     -2222.6012   6.0000                                         
     3  2  2.50     -1726.3120  10.0000                                         
     4  0  0.50      -538.6961   2.0000                                         
     4  1  1.50      -399.0129   6.0000                                         
     4  2  2.50      -220.3959  10.0000                                         
     4  3  3.50       -23.0374  14.0000                                         
     5  0  0.50       -71.2901   2.0000                                         
     5  1  1.50       -37.8225   6.0000                                         
     5  2  2.50        -2.6455   4.0000                                         
     6  0  0.50        -4.9623   1.0000                                         
     6  1  1.50        -1.3606   0.0000                                         
     5  3  2.50        -1.3606   0.0000                                         
   Description                                                                  
     l       E           TYP  RCUT    TYP  RCUT                                 
     2     -2.6455043     23  2.500                                             
     2     -0.6258895     23  2.500                                             
     0     -4.9622780     23  2.500                                             
     0      4.7531321     23  2.500                                             
     1     -1.3605826     23  2.900                                             
     1     27.2116520     23  2.900                                             
  local pseudopotential read in
  partial core-charges read in
  partial kinetic energy density read in
  atomic valenz-charges read in
  non local Contribution for L=           2  read in
    real space projection operators read in
  non local Contribution for L=           2  read in
    real space projection operators read in
  non local Contribution for L=           0  read in
    real space projection operators read in
  non local Contribution for L=           0  read in
    real space projection operators read in
  non local Contribution for L=           1  read in
    real space projection operators read in
  non local Contribution for L=           1  read in
    real space projection operators read in
    PAW grid and wavefunctions read in
 
   number of l-projection  operators is LMAX  =           6
   number of lm-projection operators is LMMAX =          18
 
 POTCAR:    PAW_PBE Ti 08Apr2002                  
   VRHFIN =Ti: d3 s1                                                            
   LEXCH  = PE                                                                  
   EATOM  =    94.7928 eV,    6.9671 Ry                                         
                                                                                
   TITEL  = PAW_PBE Ti 08Apr2002                                                
   LULTRA =        F    use ultrasoft PP ?                                      
   IUNSCR =        1    unscreen: 0-lin 1-nonlin 2-no                           
   RPACOR =    2.200    partial core radius                                     
   POMASS =   47.880; ZVAL   =    4.000    mass and valenz                      
   RCORE  =    2.800    outmost cutoff radius                                   
   RWIGS  =    2.500; RWIGS  =    1.323    wigner-seitz radius (au A)           
   ENMAX  =  178.330; ENMIN  =  133.747 eV                                      
   RCLOC  =    2.215    cutoff for local pot                                    
   LCOR   =        T    correct aug charges                                     
   LPAW   =        T    paw PP                                                  
   EAUG   =  328.883                                                            
   DEXC   =    0.000                                                            
   RMAX   =    2.868    core radius for proj-oper                               
   RAUG   =    1.300    factor for augmentation sphere                          
   RDEP   =    2.885    radius for radial grids                                 
   RDEPT  =    2.320    core radius for aug-charge                              
                                                                                
   Atomic configuration                                                         
    9 entries                                                                   
     n  l   j            E        occ.                                          
     1  0  0.50     -4865.3608   2.0000                                         
     2  0  0.50      -533.1367   2.0000                                         
     2  1  1.50      -440.5031   6.0000                                         
     3  0  0.50       -59.3186   2.0000                                         
     3  1  1.50       -35.7012   6.0000                                         
     3  2  2.50        -1.9157   3.0000                                         
     4  0  0.50        -3.7291   1.0000                                         
     4  1  1.50        -4.0817   0.0000                                         
     4  3  2.50        -1.3606   0.0000                                         
   Description                                                                  
     l       E           TYP  RCUT    TYP  RCUT                                 
     2     -1.9156924     23  2.800                                             
     2     -0.4062961     23  2.800                                             
     0     -3.7290832     23  2.800                                             
     0     20.4087390     23  2.800                                             
     1     -5.4423304     23  2.800                                             
  local pseudopotential read in
  partial core-charges read in
  partial kinetic energy density read in
  atomic valenz-charges read in
  non local Contribution for L=           2  read in
    real space projection operators read in
  non local Contribution for L=           2  read in
    real space projection operators read in
  non local Contribution for L=           0  read in
    real space projection operators read in
  non local Contribution for L=           0  read in
    real space projection operators read in
  non local Contribution for L=           1  read in
    real space projection operators read in
    PAW grid and wavefunctions read in
 
   number of l-projection  operators is LMAX  =           5
   number of lm-projection operators is LMMAX =          15
 
 POTCAR:   PAW_PBE Zr 08Apr2002                   
   VRHFIN =Zr: 5s4d5p                                                           
   LEXCH  = PE                                                                  
   EATOM  =    77.8472 eV,    5.7216 Ry                                         
                                                                                
   TITEL  = PAW_PBE Zr 08Apr2002                                                
   LULTRA =        F    use ultrasoft PP ?                                      
   IUNSCR =        1    unscreen: 0-lin 1-nonlin 2-no                           
   RPACOR =    2.200    partial core radius                                     
   POMASS =   91.224; ZVAL   =    4.000    mass and valenz                      
   RCORE  =    3.000    outmost cutoff radius                                   
   RWIGS  =    3.070; RWIGS  =    1.625    wigner-seitz radius (au A)           
   ENMAX  =  154.632; ENMIN  =  115.974 eV                                      
   RCLOC  =    2.213    cutoff for local pot                                    
   LCOR   =        T    correct aug charges                                     
   LPAW   =        T    paw PP                                                  
   EAUG   =  243.217                                                            
   DEXC   =    -.082                                                            
   RMAX   =    3.708    core radius for proj-oper                               
   RAUG   =    1.300    factor for augmentation sphere                          
   RDEP   =    3.146    radius for radial grids                                 
   QCUT   =   -3.371; QGAM   =    6.742    optimization parameters              
                                                                                
   Description                                                                  
     l     E      TYP  RCUT    TYP  RCUT                                        
     2   .000     23  3.000                                                     
     2   .000     23  3.000                                                     
     0   .000     23  3.000                                                     
     0  2.000     23  3.000                                                     
     1  -.400     23  3.000                                                     
     3   .000      7   .000                                                     
  local pseudopotential read in
  partial core-charges read in
  atomic valenz-charges read in
  non local Contribution for L=           2  read in
    real space projection operators read in
  non local Contribution for L=           2  read in
    real space projection operators read in
  non local Contribution for L=           0  read in
    real space projection operators read in
  non local Contribution for L=           0  read in
    real space projection operators read in
  non local Contribution for L=           1  read in
    real space projection operators read in
    PAW grid and wavefunctions read in
 
   number of l-projection  operators is LMAX  =           5
   number of lm-projection operators is LMMAX =          15
 
 POTCAR:    PAW_PBE O 08Apr2002                   
   VRHFIN =O: s2p4                                                              
   LEXCH  = PE                                                                  
   EATOM  =   432.3788 eV,   31.7789 Ry                                         
                                                                                
   TITEL  = PAW_PBE O 08Apr2002                                                 
   LULTRA =        F    use ultrasoft PP ?                                      
   IUNSCR =        1    unscreen: 0-lin 1-nonlin 2-no                           
   RPACOR =    1.200    partial core radius                                     
   POMASS =   16.000; ZVAL   =    6.000    mass and valenz                      
   RCORE  =    1.520    outmost cutoff radius                                   
   RWIGS  =    1.550; RWIGS  =    0.820    wigner-seitz radius (au A)           
   ENMAX  =  400.000; ENMIN  =  300.000 eV                                      
   ICORE  =        2    local potential                                         
   LCOR   =        T    correct aug charges                                     
   LPAW   =        T    paw PP                                                  
   EAUG   =  605.392                                                            
   DEXC   =    0.000                                                            
   RMAX   =    1.553    core radius for proj-oper                               
   RAUG   =    1.300    factor for augmentation sphere                          
   RDEP   =    1.550    radius for radial grids                                 
   RDEPT  =    1.329    core radius for aug-charge                              
                                                                                
   Atomic configuration                                                         
    4 entries                                                                   
     n  l   j            E        occ.                                          
     1  0  0.50      -514.6923   2.0000                                         
     2  0  0.50       -23.9615   2.0000                                         
     2  1  0.50        -9.0305   4.0000                                         
     3  2  1.50        -9.5241   0.0000                                         
   Description                                                                  
     l       E           TYP  RCUT    TYP  RCUT                                 
     0    -23.9615318     23  1.200                                             
     0     -9.5240782     23  1.200                                             
     1     -9.0304911     23  1.520                                             
     1      8.1634956     23  1.520                                             
     2     -9.5240782      7  1.500                                             
  local pseudopotential read in
  partial core-charges read in
  partial kinetic energy density read in
  kinetic energy density of atom read in
  atomic valenz-charges read in
  non local Contribution for L=           0  read in
    real space projection operators read in
  non local Contribution for L=           0  read in
    real space projection operators read in
  non local Contribution for L=           1  read in
    real space projection operators read in
  non local Contribution for L=           1  read in
    real space projection operators read in
    PAW grid and wavefunctions read in
 
   number of l-projection  operators is LMAX  =           4
   number of lm-projection operators is LMMAX =           8
 

 ----------------------------------------------------------------------------- 
|                                                                             |
|  ADVICE TO THIS USER RUNNING 'VASP/VAMP'   (HEAR YOUR MASTER'S VOICE ...):  |
|                                                                             |
|      You have a (more or less) 'large supercell' and for larger cells       |
|      it might be more efficient to use real space projection opertators     |
|      So try LREAL= Auto  in the INCAR   file.                               |
|      Mind: At the moment your POTCAR file does not contain real space       |
|       projectors, and has to be modified,  BUT if you                       |
|      want to do an extremely  accurate calculation you might also keep the  |
|      reciprocal projection scheme          (i.e. LREAL=.FALSE.)             |
|                                                                             |
 ----------------------------------------------------------------------------- 

 WARNING: PSMAXN for non-local potential too small
          PSMAXN should be >   12.5490833729506       NTYP=           5
  PAW_PBE Al 04Jan2001                  :
 energy of atom  1       EATOM=  -53.5387
 kinetic energy error for atom=    0.0002 (will be added to EATOM!!)
  PAW_PBE Nb_sv 25May2007               :
 energy of atom  2       EATOM=-1555.1913
 kinetic energy error for atom=    0.0037 (will be added to EATOM!!)
  PAW_PBE Ta 17Jan2003                  :
 energy of atom  3       EATOM= -130.6506
 kinetic energy error for atom=    0.0004 (will be added to EATOM!!)
  PAW_PBE Ti 08Apr2002                  :
 energy of atom  4       EATOM=  -94.7928
 kinetic energy error for atom=    0.0001 (will be added to EATOM!!)
 PAW_PBE Zr 08Apr2002                   :
 energy of atom  5       EATOM=  -77.8472
 kinetic energy error for atom=    0.0001 (will be added to EATOM!!)
  PAW_PBE O 08Apr2002                   :
 energy of atom  6       EATOM= -432.3788
 kinetic energy error for atom=    0.0168 (will be added to EATOM!!)
 
 
 POSCAR: Al Nb Ta Ti Zr                          
  positions in direct lattice
  velocities in cartesian coordinates
 exchange correlation table for  LEXCH =        8
   RHO(1)=    0.500       N(1)  =     2000
   RHO(2)=  100.500       N(2)  =     4000
 


--------------------------------------------------------------------------------------------------------


 ion  position               nearest neighbor table
   1  0.623  0.867  0.376-  34 2.83  25 2.88  24 2.88   9 2.88  13 2.90   4 2.91  61 2.93  15 3.16
                            41 3.35  17 3.40
   2  0.619  0.368  0.544-  86 1.94  89 2.30  31 2.68  33 2.81   7 2.83  10 2.87  23 2.88  26 2.90
                            62 2.93  16 2.99  18 3.16  42 3.27  17 3.28
   3  0.590  0.655  0.639-  75 1.77  78 1.83  79 1.84  86 1.89  85 2.02  32 2.70   8 2.84  23 2.85
                            26 2.88  45 3.00  33 3.10  14 3.12
   4  0.618  0.084  0.450-  31 2.80  24 2.86  34 2.87  13 2.88   1 2.91  62 2.91  25 2.92   7 2.92
                            10 3.10  28 3.16  46 3.24
   5  0.974  0.640  0.544-  88 1.98  82 2.07  30 2.75  63 2.81  42 2.89  47 2.95  52 2.96  27 2.98
                            56 3.11  57 3.13  59 3.43
   6  0.980  0.121  0.378-  29 2.80  28 2.80  53 2.91  41 2.96  51 3.05  55 3.05  60 3.08  57 3.37

   7  0.729  0.343  0.458-  28 2.77   2 2.83  29 2.83  31 2.85  17 2.89  11 2.90   4 2.92  63 3.07
                            62 3.13  42 3.24
   8  0.727  0.877  0.636-  78 2.03  71 2.04  77 2.21  79 2.26  27 2.75   3 2.84  12 2.92  32 2.92
                            18 2.98  30 2.98  64 3.16
   9  0.517  0.608  0.367-  35 2.84  15 2.85  17 2.87   1 2.88  11 2.89  61 2.95  43 3.10
  10  0.508  0.115  0.547-  16 2.65  12 2.79  18 2.82   2 2.87  36 2.94  44 2.99  46 3.04   4 3.10
                            62 3.11
  11  0.618  0.343  0.369-  24 2.75  34 2.83  31 2.87   9 2.89   7 2.90  61 2.96  43 3.27
  12  0.613  0.866  0.547-  85 2.42  23 2.73  10 2.79  62 2.87   8 2.92  13 2.96  32 2.96  25 2.97
                            33 3.00  30 3.11  44 3.22
  13  0.742  0.843  0.462-  30 2.63  17 2.87   4 2.88   1 2.90  28 2.94  12 2.96  63 2.98  41 3.05
                            57 3.27  62 3.30
  14  0.751  0.425  0.645-  76 2.00  74 2.04  89 2.05  79 2.11  42 2.89  27 2.91  58 2.95  23 3.10
                             3 3.12  18 3.20
  15  0.394  0.847  0.369-  22 2.68  19 2.76  25 2.83  34 2.84   9 2.85  39 2.98   1 3.16  46 3.43

  16  0.403  0.346  0.538-  84 2.16  87 2.25  10 2.65  31 2.68  33 2.77  21 2.84  26 2.85  20 2.86
                            37 2.89  40 2.94   2 2.99  46 3.25
  17  0.619  0.602  0.458-  33 2.80  25 2.81  31 2.85   9 2.87  13 2.87   7 2.89  61 2.95  35 3.03
                            23 3.15   2 3.28   1 3.40  63 3.44
  18  0.623  0.149  0.630-  72 2.00  71 2.08  74 2.08  89 2.21  32 2.68  10 2.82  26 2.88   8 2.98
                            62 3.00  36 3.08   2 3.16  14 3.20  64 3.67
  19  0.279  0.834  0.451-  15 2.76  35 2.94  44 2.94  46 2.96  39 2.97  25 2.99  60 3.07  51 3.08
                            47 3.12  56 3.20
  20  0.281  0.366  0.621-  70 2.03  69 2.12  67 2.16  87 2.19  84 2.22  16 2.86  36 2.91  26 2.97
                            21 2.98  59 3.04  40 3.08  48 3.14  52 3.23  45 3.35
  21  0.277  0.580  0.542-  84 2.10  80 2.12  87 2.14  82 2.15  16 2.84  20 2.98  37 2.99  35 3.03
                            59 3.03  33 3.04  44 3.06  47 3.09  56 3.13  52 3.18  45 3.42
  22  0.283  0.077  0.361-  15 2.68  46 2.97  43 2.97  34 2.99  51 3.02  55 3.10  60 3.10
  23  0.720  0.628  0.559-  79 2.14  86 2.17  30 2.72  12 2.73   3 2.85   2 2.88  42 2.91  27 3.01
                            14 3.10  33 3.14  17 3.15  63 3.48
  24  0.740  0.115  0.366-  29 2.73  11 2.75  28 2.85   4 2.86   1 2.88  41 3.00
  25  0.496  0.836  0.458-  35 2.78  17 2.81  15 2.83   1 2.88  44 2.89   4 2.92  12 2.97  19 2.99
                            46 2.99  33 3.16
  26  0.495  0.388  0.629-  70 1.94  74 2.01  75 2.14  86 2.17  87 2.20  16 2.85  36 2.87   3 2.88
                            18 2.88   2 2.90  20 2.97  45 3.30
  27  0.869  0.676  0.637-  76 2.01  68 2.03  77 2.04  79 2.05   8 2.75  58 2.78  14 2.91  54 2.98
                             5 2.98  23 3.01  30 3.10  42 3.53
  28  0.847  0.110  0.455-   7 2.77  62 2.78   6 2.80  24 2.85  57 2.90  13 2.94  53 2.98  29 3.15
                             4 3.16  50 3.22  41 3.36
  29  0.852  0.349  0.376-  24 2.73   6 2.80   7 2.83  53 2.94  61 2.98  49 3.07  28 3.15  63 3.25

  30  0.839  0.851  0.544-  83 2.09  88 2.18  13 2.63  23 2.72   5 2.75  62 2.88  57 2.92   8 2.98
                            50 3.06  27 3.10  12 3.11  63 3.46
  31  0.522  0.339  0.461-  16 2.68   2 2.68   4 2.80  17 2.85   7 2.85  35 2.86  11 2.87  46 2.95
                            43 3.11
  32  0.517  0.916  0.641-  72 1.93  78 1.93  65 2.05  85 2.05  36 2.54  18 2.68   3 2.70   8 2.92
                            12 2.96  45 3.02  44 3.33
  33  0.497  0.602  0.538-  86 2.11  85 2.14  87 2.28  35 2.76  16 2.77  17 2.80   2 2.81  44 2.98
                            12 3.00  21 3.04   3 3.10  23 3.14  25 3.16
  34  0.499  0.102  0.365-  11 2.83   1 2.83  15 2.84   4 2.87  43 2.91  46 2.98  22 2.99
  35  0.400  0.580  0.451-  33 2.76  25 2.78   9 2.84  31 2.86  37 2.88  39 2.93  19 2.94  17 3.03
                            21 3.03  43 3.08
  36  0.401  0.122  0.638-  70 2.00  72 2.01  67 2.05  65 2.20  32 2.54  26 2.87  20 2.91  38 2.91
                            10 2.94  18 3.08  40 3.25
  37  0.255  0.366  0.464-  84 2.16  35 2.88  16 2.89  21 2.99  47 3.02  60 3.04  43 3.05  55 3.08
                            46 3.08  40 3.22  52 3.32  39 3.39
  38  0.235  0.932  0.635-  73 1.95  65 2.04  67 2.08  80 2.20  54 2.83  56 2.86  36 2.91  48 2.95
                            40 3.09  45 3.12  59 3.19  44 3.27
  39  0.252  0.614  0.376-  35 2.93  19 2.97  15 2.98  47 3.07  43 3.07  51 3.07  55 3.08  37 3.39
                            49 3.53
  40  0.253  0.129  0.547-  84 2.26  67 2.41  16 2.94  60 3.05  56 3.05  20 3.08  44 3.09  38 3.09
                            46 3.11  37 3.22  36 3.25  52 3.29  48 3.32  50 3.67
  41  0.865  0.859  0.370-   6 2.96  24 3.00  61 3.05  13 3.05  57 3.06  49 3.12   1 3.35  28 3.36
                            51 3.49  63 3.53
  42  0.855  0.393  0.555-  89 2.26  81 2.33  14 2.89   5 2.89  23 2.91  58 3.14  62 3.23   7 3.24
                            52 3.26   2 3.27  63 3.29  50 3.46  53 3.51  27 3.53  64 3.84
  43  0.381  0.352  0.373-  34 2.91  22 2.97  37 3.05  39 3.07  35 3.08   9 3.10  31 3.11  55 3.26
                            11 3.27  46 3.29
  44  0.379  0.863  0.544-  80 2.31  85 2.36  25 2.89  19 2.94  33 2.98  10 2.99  21 3.06  40 3.09
                            56 3.20  12 3.22  38 3.27  32 3.33  46 3.36  45 3.43
  45  0.374  0.678  0.651-  75 2.04  69 2.05  65 2.17  80 2.20  87 2.22  85 2.31   3 3.00  32 3.02
                            38 3.12  59 3.16  26 3.30  20 3.35  21 3.42  44 3.43
  46  0.384  0.104  0.456-  31 2.95  19 2.96  22 2.97  34 2.98  25 2.99  10 3.04  37 3.08  40 3.11
                             4 3.24  16 3.25  60 3.27  43 3.29  44 3.36  15 3.43
  47  0.117  0.611  0.465-  82 2.34   5 2.95  37 3.02  39 3.07  21 3.09  19 3.12  53 3.14  49 3.15
                            57 3.17  56 3.22  52 3.28  63 3.42  51 3.52  55 3.80
  48  0.101  0.172  0.638-  67 2.12  66 2.14  81 2.29  38 2.95  54 3.01  64 3.07  50 3.08  58 3.08
                            52 3.12  20 3.14  40 3.32
  49  0.996  0.593  0.368-  63 3.05  29 3.07  41 3.12  47 3.15  51 3.16  55 3.23  53 3.44  39 3.53
                            61 3.65  57 3.82
  50  0.988  0.087  0.547-  83 2.18  81 2.20  88 2.52  57 3.03  30 3.06  48 3.08  52 3.16  56 3.17
                            28 3.22  64 3.29  60 3.45  42 3.46  53 3.49  54 3.50  62 3.53  40 3.67
  51  0.119  0.872  0.375-  60 3.00  22 3.02   6 3.05  39 3.07  19 3.08  57 3.16  49 3.16  41 3.49
                            47 3.52
  52  0.091  0.382  0.552-  84 2.17  81 2.26  82 2.30   5 2.96  53 3.05  48 3.12  50 3.16  21 3.18
                            20 3.23  42 3.26  59 3.27  47 3.28  40 3.29  37 3.32  58 3.36
  53  1.000  0.331  0.453-   6 2.91  29 2.94  28 2.98  52 3.05  60 3.06  63 3.08  55 3.09  47 3.14
                            49 3.44  50 3.49  42 3.51
  54  0.035  0.873  0.647-  73 2.15  77 2.20  68 2.25  88 2.26  38 2.83  59 2.91  27 2.98  48 3.01
                            64 3.10  56 3.20  50 3.50
  55  0.145  0.332  0.368-   6 3.05  37 3.08  39 3.08  53 3.09  22 3.10  49 3.23  60 3.24  43 3.26
                            47 3.80
  56  0.148  0.848  0.546-  82 2.23  88 2.30  80 2.38  38 2.86  40 3.05   5 3.11  21 3.13  50 3.17
                            19 3.20  59 3.20  44 3.20  54 3.20  47 3.22  57 3.23  60 3.51
  57  0.979  0.876  0.465-  28 2.90  30 2.92  88 2.92  50 3.03  41 3.06  63 3.11  60 3.13   5 3.13
                            51 3.16  47 3.17  56 3.23  13 3.27   6 3.37  49 3.82
  58  0.964  0.424  0.654-  66 2.09  76 2.10  68 2.20  81 2.21  27 2.78  14 2.95  48 3.08  42 3.14
                            64 3.18  59 3.26  52 3.36
  59  0.151  0.622  0.631-  68 2.11  69 2.12  73 2.17  80 2.28  82 2.30  54 2.91  21 3.03  20 3.04
                            45 3.16  38 3.19  56 3.20  58 3.26  52 3.27   5 3.43
  60  0.147  0.092  0.451-  51 3.00  37 3.04  40 3.05  53 3.06  19 3.07   6 3.08  22 3.10  57 3.13
                            55 3.24  46 3.27  50 3.45  56 3.51
  61  0.731  0.606  0.367-   1 2.93  17 2.95   9 2.95  11 2.96  29 2.98  41 3.05  63 3.17  49 3.65

  62  0.733  0.110  0.538-  83 2.18  89 2.20  28 2.78  12 2.87  30 2.88   4 2.91   2 2.93  18 3.00
                            10 3.11   7 3.13  42 3.23  13 3.30  50 3.53  64 3.82
  63  0.869  0.592  0.458-   5 2.81  13 2.98  49 3.05   7 3.07  53 3.08  57 3.11  61 3.17  29 3.25
                            42 3.29  47 3.42  17 3.44  30 3.46  23 3.48  41 3.53
  64  0.884  0.112  0.654-  71 2.10  66 2.11  83 2.12  77 2.27  81 2.55  48 3.07  54 3.10   8 3.16
                            58 3.18  50 3.29  18 3.67  62 3.82  42 3.84
  65  0.373  0.904  0.660-  38 2.04  32 2.05  45 2.17  36 2.20
  66  0.991  0.233  0.689-  58 2.09  64 2.11  48 2.14
  67  0.253  0.147  0.634-  36 2.05  38 2.08  48 2.12  20 2.16  40 2.41
  68  0.009  0.643  0.659-  27 2.03  59 2.11  58 2.20  54 2.25
  69  0.269  0.536  0.669-  45 2.05  20 2.12  59 2.12
  70  0.389  0.313  0.667-  26 1.94  36 2.00  20 2.03
  71  0.738  0.066  0.669-   8 2.04  18 2.08  64 2.10
  72  0.522  0.089  0.678-  32 1.93  18 2.00  36 2.01
  73  0.169  0.801  0.678-  38 1.95  54 2.15  59 2.17
  74  0.619  0.343  0.664-  26 2.01  14 2.04  18 2.08
  75  0.495  0.573  0.672-   3 1.77  45 2.04  26 2.14
  76  0.846  0.526  0.687-  14 2.00  27 2.01  58 2.10
  77  0.879  0.876  0.662-  27 2.04  54 2.20   8 2.21  64 2.27
  78  0.613  0.808  0.676-   3 1.83  32 1.93   8 2.03
  79  0.723  0.641  0.637-   3 1.84  27 2.05  14 2.11  23 2.14   8 2.26
  80  0.272  0.744  0.593-  21 2.12  38 2.20  45 2.20  59 2.28  44 2.31  56 2.38
  81  0.976  0.269  0.595-  50 2.20  58 2.21  52 2.26  48 2.29  42 2.33  64 2.55
  82  0.123  0.618  0.549-   5 2.07  21 2.15  56 2.23  52 2.30  59 2.30  47 2.34
  83  0.852  0.037  0.583-  30 2.09  64 2.12  62 2.18  50 2.18
  84  0.247  0.364  0.542-  21 2.10  16 2.16  37 2.16  52 2.17  20 2.22  40 2.26
  85  0.491  0.750  0.596-   3 2.02  32 2.05  33 2.14  45 2.31  44 2.36  12 2.42
  86  0.596  0.519  0.589-   3 1.89   2 1.94  33 2.11  26 2.17  23 2.17
  87  0.386  0.518  0.593-  21 2.14  20 2.19  26 2.20  45 2.22  16 2.25  33 2.28
  88  0.988  0.832  0.570-   5 1.98  30 2.18  54 2.26  56 2.30  50 2.52  57 2.92
  89  0.737  0.273  0.594-  14 2.05  62 2.20  18 2.21  42 2.26   2 2.30
 
  LATTYP: Found a simple orthorhombic cell.
 ALAT       =     9.5644817352
 B/A-ratio  =     1.4398428730
 C/A-ratio  =     2.8922184390
  
  Lattice vectors:
  
 A1 = (   0.0000000000,  -9.5644817352,   0.0000000000)
 A2 = ( -13.7713508606,   0.0000000000,   0.0000000000)
 A3 = (   0.0000000000,   0.0000000000, -27.6625704340)


Analysis of symmetry for initial positions (statically):
=====================================================================
 Subroutine PRICEL returns:
 Original cell was already a primitive cell.
 

 Routine SETGRP: Setting up the symmetry group for a 
 simple orthorhombic supercell.


 Subroutine GETGRP returns: Found  1 space group operations
 (whereof  1 operations were pure point group operations)
 out of a pool of  8 trial point group operations.


The static configuration has the point symmetry C_1 .


Analysis of symmetry for dynamics (positions and initial velocities):
=====================================================================
 Subroutine PRICEL returns:
 Original cell was already a primitive cell.
 

 Routine SETGRP: Setting up the symmetry group for a 
 simple orthorhombic supercell.


 Subroutine GETGRP returns: Found  1 space group operations
 (whereof  1 operations were pure point group operations)
 out of a pool of  8 trial point group operations.


The dynamic configuration has the point symmetry C_1 .


Analysis of constrained symmetry for selective dynamics:
=====================================================================
 Subroutine PRICEL returns:
 Original cell was already a primitive cell.
 

 Routine SETGRP: Setting up the symmetry group for a 
 simple orthorhombic supercell.


 Subroutine GETGRP returns: Found  1 space group operations
 (whereof  1 operations were pure point group operations)
 out of a pool of  8 trial point group operations.


The constrained configuration has the point symmetry C_1 .


 Subroutine INISYM returns: Found  1 space group operations
 (whereof  1 operations are pure point group operations),
 and found     1 'primitive' translations

 
 
 KPOINTS: k-points                                

Automatic generation of k-mesh.
Space group operators:
 irot       det(A)        alpha          n_x          n_y          n_z        tau_x        tau_y        tau_z
    1     1.000000     0.000000     1.000000     0.000000     0.000000     0.000000     0.000000     0.000000
 
 Subroutine IBZKPT returns following result:
 ===========================================
 
 Found      5 irreducible k-points:
 
 Following reciprocal coordinates:
            Coordinates               Weight
  0.000000  0.000000  0.000000      1.000000
  0.333333  0.000000  0.000000      2.000000
  0.000000  0.333333  0.000000      2.000000
  0.333333  0.333333  0.000000      2.000000
 -0.333333  0.333333  0.000000      2.000000
 
 Following cartesian coordinates:
            Coordinates               Weight
  0.000000  0.000000  0.000000      1.000000
  0.024205  0.000000  0.000000      2.000000
  0.000000  0.034851  0.000000      2.000000
  0.024205  0.034851  0.000000      2.000000
 -0.024205  0.034851  0.000000      2.000000
 


--------------------------------------------------------------------------------------------------------




 Dimension of arrays:
   k-points           NKPTS =      5   k-points in BZ     NKDIM =      5   number of bands    NBANDS=    296
   number of dos      NEDOS =    301   number of ions     NIONS =     89
   non local maximal  LDIM  =      6   non local SUM 2l+1 LMDIM =     18
   total plane-waves  NPLWV = 846720
   max r-space proj   IRMAX =      1   max aug-charges    IRDMAX=  25433
   dimension x,y,z NGX =    84 NGY =   60 NGZ =  168
   dimension x,y,z NGXF=   168 NGYF=  120 NGZF=  336
   support grid    NGXF=   168 NGYF=  120 NGZF=  336
   ions per type =               6  10   4  18  26  25
 NGX,Y,Z   is equivalent  to a cutoff of  10.14, 10.43, 10.10 a.u.
 NGXF,Y,Z  is equivalent  to a cutoff of  20.28, 20.86, 20.19 a.u.


 I would recommend the setting:
   dimension x,y,z NGX =    83 NGY =   57 NGZ =  166
 SYSTEM =  (110) surface                           
 POSCAR =  Al Nb Ta Ti Zr                          

 Startparameter for this run:
   NWRITE =      2    write-flag & timer
   PREC   = normal    normal or accurate (medium, high low for compatibility)
   ISTART =      0    job   : 0-new  1-cont  2-samecut
   ICHARG =      2    charge: 1-file 2-atom 10-const
   ISPIN  =      1    spin polarized calculation?
   LNONCOLLINEAR =      F non collinear calculations
   LSORBIT =      F    spin-orbit coupling
   INIWAV =      1    electr: 0-lowe 1-rand  2-diag
   LASPH  =      F    aspherical Exc in radial PAW
   METAGGA=      F    non-selfconsistent MetaGGA calc.

 Electronic Relaxation 1
   ENCUT  =  600.0 eV  44.10 Ry    6.64 a.u.  27.50 19.10 55.25*2*pi/ulx,y,z
   ENINI  =  600.0     initial cutoff
   ENAUG  =  605.4 eV  augmentation charge cutoff
   NELM   =     60;   NELMIN=  2; NELMDL= -5     # of ELM steps 
   EDIFF  = 0.1E-03   stopping-criterion for ELM
   LREAL  =      F    real-space projection
   NLSPLINE    = F    spline interpolate recip. space projectors
   LCOMPAT=      F    compatible to vasp.4.4
   GGA_COMPAT  = T    GGA compatible to vasp.4.4-vasp.4.6
   LMAXPAW     = -100 max onsite density
   LMAXMIX     =    2 max onsite mixed and CHGCAR
   VOSKOWN=      0    Vosko Wilk Nusair interpolation
   ROPT   =    0.00000   0.00000   0.00000   0.00000
   ROPT   =    0.00000   0.00000
 Ionic relaxation
   EDIFFG = 0.1E-02   stopping-criterion for IOM
   NSW    =      0    number of steps for IOM
   NBLOCK =      1;   KBLOCK =      1    inner block; outer block 
   IBRION =     -1    ionic relax: 0-MD 1-quasi-New 2-CG
   NFREE  =      0    steps in history (QN), initial steepest desc. (CG)
   ISIF   =      2    stress and relaxation
   IWAVPR =     10    prediction:  0-non 1-charg 2-wave 3-comb
   ISYM   =      2    0-nonsym 1-usesym 2-fastsym
   LCORR  =      T    Harris-Foulkes like correction to forces

   POTIM  = 0.1000    time-step for ionic-motion
   TEIN   =    0.0    initial temperature
   TEBEG  =    0.0;   TEEND  =   0.0 temperature during run
   SMASS  =  -3.00    Nose mass-parameter (am)
   estimated Nose-frequenzy (Omega)   =  0.10E-29 period in steps =****** mass=  -0.433E-26a.u.
   SCALEE = 1.0000    scale energy and forces
   NPACO  =    256;   APACO  = 16.0  distance and # of slots for P.C.
   PSTRESS=    0.0 pullay stress

  Mass of Ions in am
   POMASS =  26.98 92.91180.95 47.88 91.22 16.00
  Ionic Valenz
   ZVAL   =   3.00 13.00  5.00  4.00  4.00  6.00
  Atomic Wigner-Seitz radii
   RWIGS  =  -1.00 -1.00 -1.00 -1.00 -1.00 -1.00
  virtual crystal weights 
   VCA    =   1.00  1.00  1.00  1.00  1.00  1.00
   NELECT =     494.0000    total number of electrons
   NUPDOWN=      -1.0000    fix difference up-down

 DOS related values:
   EMIN   =  10.00;   EMAX   =-10.00  energy-range for DOS
   EFERMI =   0.00
   ISMEAR =     2;   SIGMA  =   0.10  broadening in eV -4-tet -1-fermi 0-gaus

 Electronic relaxation 2 (details)
   IALGO  =     68    algorithm
   LDIAG  =      T    sub-space diagonalisation (order eigenvalues)
   LSUBROT=      F    optimize rotation matrix (better conditioning)
   TURBO    =      0    0=normal 1=particle mesh
   IRESTART =      0    0=no restart 2=restart with 2 vectors
   NREBOOT  =      0    no. of reboots
   NMIN     =      0    reboot dimension
   EREF     =   0.00    reference energy to select bands
   IMIX   =      4    mixing-type and parameters
     AMIX     =   0.40;   BMIX     =  1.00
     AMIX_MAG =   1.60;   BMIX_MAG =  1.00
     AMIN     =   0.10
     WC   =   100.;   INIMIX=   1;  MIXPRE=   1;  MAXMIX= -45

 Intra band minimization:
   WEIMIN = 0.0000     energy-eigenvalue tresh-hold
   EBREAK =  0.84E-07  absolut break condition
   DEPER  =   0.30     relativ break condition  

   TIME   =   0.40     timestep for ELM

  volume/ion in A,a.u.               =      40.94       276.27
  Fermi-wavevector in a.u.,A,eV,Ry     =   0.841021  1.589300  9.623629  0.707317
  Thomas-Fermi vector in A             =   1.955498
 
 Write flags
   LWAVE  =      F    write WAVECAR
   LCHARG =      T    write CHGCAR
   LVTOT  =      F    write LOCPOT, total local potential
   LVHAR  =      F    write LOCPOT, Hartree potential only
   LELF   =      F    write electronic localiz. function (ELF)
   LORBIT =      0    0 simple, 1 ext, 2 COOP (PROOUT)


 Dipole corrections
   LMONO  =      F    monopole corrections only (constant potential shift)
   LDIPOL =      F    correct potential (dipole corrections)
   IDIPOL =      0    1-x, 2-y, 3-z, 4-all directions 
   EPSILON=  1.0000000 bulk dielectric constant

 Exchange correlation treatment:
   GGA     =    --    GGA type
   LEXCH   =     8    internal setting for exchange type
   VOSKOWN=      0    Vosko Wilk Nusair interpolation
   LHFCALC =     F    Hartree Fock is set to
   LHFONE  =     F    Hartree Fock one center treatment
   AEXX    =    0.0000 exact exchange contribution

 Linear response parameters
   LEPSILON=     F    determine dielectric tensor
   LRPA    =     F    only Hartree local field effects (RPA)
   LNABLA  =     F    use nabla operator in PAW spheres
   LVEL    =     F    velocity operator in full k-point grid
   LINTERFAST=   F  fast interpolation
   KINTER  =     0    interpolate to denser k-point grid
   CSHIFT  =0.1000    complex shift for real part using Kramers Kronig
   OMEGAMAX=  -1.0    maximum frequency
   DEG_THRESHOLD= 0.2000000E-02 threshold for treating states as degnerate
   RTIME   =    0.100 relaxation time in fs

 Orbital magnetization related:
   ORBITALMAG=     F  switch on orbital magnetization
   LCHIMAG   =     F  perturbation theory with respect to B field
   DQ        =  0.001000  dq finite difference perturbation B field



--------------------------------------------------------------------------------------------------------


 Static calculation
 charge density and potential will be updated during run
 non-spin polarized calculation
 RMM-DIIS sequential band-by-band and
  variant of blocked Davidson during initial phase
 perform sub-space diagonalisation
    before iterative eigenvector-optimisation
 modified Broyden-mixing scheme, WC =      100.0
 initial mixing is a Kerker type mixing with AMIX =  0.4000 and BMIX =      1.0000
 Hartree-type preconditioning will be used
 using additional bands           49
 reciprocal scheme for non local part
 use partial core corrections
 calculate Harris-corrections to forces 
   (improved forces if not selfconsistent)
 use gradient corrections 
 use of overlap-Matrix (Vanderbilt PP)
 Methfessel and Paxton  Order N= 2 SIGMA  =   0.10


--------------------------------------------------------------------------------------------------------


  energy-cutoff  :      600.00
  volume of cell :     3643.60
      direct lattice vectors                 reciprocal lattice vectors
    13.771350861  0.000000000  0.000000000     0.072614518  0.000000000  0.000000000
     0.000000000  9.564481735  0.000000000     0.000000000  0.104553496  0.000000000
     0.000000000  0.000000000 27.662570434     0.000000000  0.000000000  0.036149931

  length of vectors
    13.771350861  9.564481735 27.662570434     0.072614518  0.104553496  0.036149931


 
 k-points in units of 2pi/SCALE and weight: k-points                                
   0.00000000  0.00000000  0.00000000       0.111
   0.02420484  0.00000000  0.00000000       0.222
   0.00000000  0.03485117  0.00000000       0.222
   0.02420484  0.03485117  0.00000000       0.222
  -0.02420484  0.03485117  0.00000000       0.222
 
 k-points in reciprocal lattice and weights: k-points                                
   0.00000000  0.00000000  0.00000000       0.111
   0.33333333  0.00000000  0.00000000       0.222
   0.00000000  0.33333333  0.00000000       0.222
   0.33333333  0.33333333  0.00000000       0.222
  -0.33333333  0.33333333  0.00000000       0.222
 
 position of ions in fractional coordinates (direct lattice) 
   0.62276447  0.86746430  0.37590333
   0.61923329  0.36757232  0.54429744
   0.58975545  0.65456815  0.63874168
   0.61839700  0.08363760  0.44965952
   0.97412325  0.64015446  0.54370393
   0.97963780  0.12056648  0.37767599
   0.72857308  0.34338307  0.45816820
   0.72703431  0.87656410  0.63609515
   0.51739597  0.60805875  0.36719826
   0.50786762  0.11462807  0.54654180
   0.61811078  0.34297293  0.36889183
   0.61311371  0.86568718  0.54724819
   0.74231148  0.84345710  0.46199300
   0.75058905  0.42499267  0.64515082
   0.39405298  0.84738672  0.36896032
   0.40339746  0.34561187  0.53773990
   0.61928761  0.60162497  0.45752798
   0.62301542  0.14898946  0.63003695
   0.27944195  0.83362269  0.45088327
   0.28067080  0.36643526  0.62067984
   0.27655516  0.57950320  0.54203650
   0.28324246  0.07725573  0.36149931
   0.72017247  0.62796811  0.55917378
   0.74002355  0.11549973  0.36646499
   0.49591756  0.83582580  0.45790018
   0.49524653  0.38766580  0.62895419
   0.86945851  0.67551541  0.63714116
   0.84724605  0.11017048  0.45460239
   0.85243583  0.34907103  0.37639265
   0.83867302  0.85104841  0.54409846
   0.52175105  0.33942658  0.46105252
   0.51688503  0.91607235  0.64143556
   0.49686421  0.60167377  0.53838655
   0.49943882  0.10200214  0.36464270
   0.40016663  0.58028412  0.45130253
   0.40080433  0.12165860  0.63837393
   0.25505811  0.36595738  0.46399110
   0.23539042  0.93202030  0.63498088
   0.25182599  0.61397660  0.37627308
   0.25309323  0.12893461  0.54684568
   0.86539888  0.85904646  0.37036829
   0.85499279  0.39343584  0.55531898
   0.38059813  0.35186696  0.37331264
   0.37947771  0.86253911  0.54428752
   0.37378590  0.67830287  0.65051465
   0.38408008  0.10357511  0.45579618
   0.11657381  0.61110574  0.46457054
   0.10063223  0.17208003  0.63843679
   0.99629861  0.59295863  0.36811234
   0.98818428  0.08722109  0.54693609
   0.11869311  0.87196302  0.37467704
   0.09143849  0.38205149  0.55202970
   0.99977952  0.33051389  0.45306987
   0.03536724  0.87289041  0.64679435
   0.14482272  0.33176249  0.36788561
   0.14752190  0.84807279  0.54579865
   0.97888047  0.87608504  0.46520830
   0.96409280  0.42350739  0.65446937
   0.15090089  0.62191204  0.63087675
   0.14721048  0.09173214  0.45072276
   0.73135245  0.60578495  0.36679988
   0.73317225  0.10993951  0.53751250
   0.86923259  0.59196168  0.45825814
   0.88384568  0.11215645  0.65354481
   0.37311899  0.90368584  0.66023654
   0.99100575  0.23278143  0.68900545
   0.25339144  0.14744913  0.63377794
   0.00889725  0.64345364  0.65880220
   0.26947473  0.53609241  0.66943093
   0.38883250  0.31279734  0.66694606
   0.73788608  0.06641985  0.66929945
   0.52161547  0.08872343  0.67762794
   0.16932031  0.80127937  0.67813836
   0.61942406  0.34313704  0.66426531
   0.49537550  0.57343090  0.67211947
   0.84626183  0.52579867  0.68685573
   0.87898627  0.87587728  0.66233597
   0.61318301  0.80840656  0.67612546
   0.72288215  0.64086489  0.63652635
   0.27202490  0.74361737  0.59348020
   0.97627668  0.26932204  0.59520788
   0.12323036  0.61760228  0.54890312
   0.85177364  0.03727716  0.58303961
   0.24749366  0.36440068  0.54201331
   0.49107671  0.75013136  0.59612680
   0.59580546  0.51891729  0.58923662
   0.38616597  0.51789001  0.59260900
   0.98769067  0.83230761  0.56976262
   0.73663596  0.27262776  0.59357603
 
 position of ions in cartesian coordinates  (Angst):
   8.57630799  8.29684649 10.39845223
   8.52767896  3.51563871 15.05666634
   8.12172924  6.26060508 17.66923670
   8.51616202  0.79995025 12.43873821
  13.41499312  6.12274568 15.04024813
  13.49093588  1.15315590 10.44748880
  10.03343557  3.28428114 12.67411000
  10.01224460  8.38388130 17.59602695
   7.12524148  5.81576681 10.15764776
   6.99402319  1.09635807 15.11875105
   8.51222037  3.28035836 10.20449636
   8.44340398  8.27984925 15.13829161
  10.22263181  8.06723005 12.77991378
  10.33662520  4.06483459 17.84653008
   5.42664188  8.10481479 10.20639088
   5.55532797  3.30559838 14.87526798
   8.52842696  5.75423100 12.65640004
   8.57976399  1.42500700 17.42844143
   3.84829318  7.97316903 12.47259035
   3.86521611  3.50476332 17.16959971
   3.80853814  5.54264778 14.99412283
   3.90063135  0.73891098 10.00000000
   9.91774773  6.00618955 15.46818416
  10.19112400  1.10469510 10.13736353
   6.82945470  7.99424061 12.66669595
   6.82021377  3.70782243 17.39848971
  11.97361814  6.46095480 17.62496228
  11.66772263  1.05372358 12.57547056
  11.73919286  3.33868345 10.41198829
  11.54966039  8.13983693 15.05116193
   7.18521672  3.24643930 12.75389771
   7.11820513  8.76175723 17.74375648
   6.84249134  5.75469782 14.89315597
   6.87794726  0.97559764 10.08695433
   5.51083508  5.55011685 12.48418803
   5.51961704  1.16360142 17.65906377
   3.51249472  3.50019267 12.83518635
   3.24164405  8.91429114 17.56520340
   3.46798404  5.87236796 10.40868071
   3.48543570  1.23319276 15.12715721
  11.91771166  8.21633417 10.24533883
  11.77440572  3.76300992 15.36155032
   5.24135036  3.36542512 10.32678719
   5.22592066  8.24973956 15.05639179
   5.14753678  6.48761538 17.99490740
   5.28930157  0.99064225 12.60849381
   1.60537885  5.84490969 12.85121538
   1.38584175  1.64585628 17.66080256
  13.72037774  5.67134198 10.18293350
  13.60863245  0.83422448 15.12965809
   1.63456451  8.33987442 10.36453009
   1.25923147  3.65412446 15.27056055
  13.76831459  3.16119411 12.53307716
   0.48705472  8.34874437 17.89199417
   1.99440444  3.17313630 10.17666150
   2.03157590  8.11137666 15.09819368
  13.48050634  8.37929939 12.86885734
  13.27686024  4.05062871 18.10430498
   2.07810912  5.94826638 17.45167262
   2.02728715  0.87737042 12.46815015
  10.07171117  5.79401911 10.14662739
  10.09677236  1.05151442 14.86897729
  11.97050705  5.66180669 12.67659812
  12.17174903  1.07271830 18.07872925
   5.13835251  8.64328668 18.26383980
  13.64748791  2.22643378 19.05966184
   3.48954239  1.41027447 17.53192681
   0.12252714  6.15430058 18.22416215
   3.71103112  5.12744608 18.51818032
   5.35474875  2.99174449 18.44944228
  10.16168805  0.63527148 18.51454324
   7.18334968  0.84859364 18.74493057
   2.33176936  7.66382194 18.75905011
   8.53030603  3.28192795 18.37528591
   6.82198978  5.48456939 18.59255215
  11.65416860  5.02899181 19.00019498
  12.10482826  8.37731222 18.32191549
   8.44435833  7.73198981 18.70336820
   9.95506373  6.12954051 17.60795498
   3.74615031  7.11231474 16.41718791
  13.44464872  2.57592574 16.46497991
   1.69704848  5.90704573 15.18407116
  11.73007369  0.35653667 16.12837437
   3.40832204  3.48530366 14.99348130
   6.76278963  7.17461772 16.49039966
   8.20504610  4.96317496 16.29979945
   5.31802709  4.95334958 16.39308833
  13.60183476  7.96059094 15.76109852
  10.14447220  2.60754321 16.41983885
 


--------------------------------------------------------------------------------------------------------


 k-point  1 :   0.0000 0.0000 0.0000  plane waves:  121663
 k-point  2 :   0.3333 0.0000 0.0000  plane waves:  121577
 k-point  3 :   0.0000 0.3333 0.0000  plane waves:  121622
 k-point  4 :   0.3333 0.3333 0.0000  plane waves:  121647
 k-point  5 :  -0.3333 0.3333 0.0000  plane waves:  121647

 maximum and minimum number of plane-waves per node :      5107     5041

 maximum number of plane-waves:    121663
 maximum index in each direction: 
   IXMAX=   27   IYMAX=   19   IZMAX=   55
   IXMIN=  -27   IYMIN=  -19   IZMIN=  -55

 WARNING: aliasing errors must be expected set NGX to 110 to avoid them
 WARNING: aliasing errors must be expected set NGY to  78 to avoid them
 WARNING: aliasing errors must be expected set NGZ to 222 to avoid them
 aliasing errors are usually negligible using standard VASP settings
 and one can safely disregard these warnings

 parallel 3D FFT for wavefunctions:
    minimum data exchange during FFTs selected (reduces bandwidth)
 parallel 3D FFT for charge:
    minimum data exchange during FFTs selected (reduces bandwidth)


 total amount of memory used by VASP on root node   142340. kBytes
========================================================================

   base      :      30000. kBytes
   nonl-proj :      29145. kBytes
   fftplans  :       6516. kBytes
   grid      :      15878. kBytes
   one-center:         62. kBytes
   wavefun   :      60739. kBytes
 
     INWAV:  cpu time    0.0000: real time    0.0000
 Broyden mixing: mesh for mixing (old mesh)
   NGX = 55   NGY = 39   NGZ =111
  (NGX  =168   NGY  =120   NGZ  =336)
  gives a total of 238095 points

 initial charge density was supplied:
 charge density of overlapping atoms calculated
 number of electron     494.0000000 magnetization 
 keeping initial charge density in first step


--------------------------------------------------------------------------------------------------------


 Maximum index for augmentation-charges         1033 (set IRDMAX)


--------------------------------------------------------------------------------------------------------


 First call to EWALD:  gamma=   0.115
 Maximum number of real-space cells 3x 4x 2
 Maximum number of reciprocal cells 3x 2x 5

 FEWALD executed in parallel
    FEWALD:  cpu time    0.0039: real time    0.0041


----------------------------------------- Iteration    1(   1)  ---------------------------------------


    POTLOK:  cpu time    0.1146: real time    0.1195
    SETDIJ:  cpu time    0.0166: real time    0.0204
     EDDAV:  cpu time   23.7894: real time   23.8342
       DOS:  cpu time    0.0024: real time    0.0026
    --------------------------------------------
      LOOP:  cpu time   23.9248: real time   23.9908

 eigenvalue-minimisations  :  3080
 total energy-change (2. order) : 0.6597638E+04  (-0.1922497E+05)
 number of electron     494.0000000 magnetization 
 augmentation part      494.0000000 magnetization 

 Free energy of the ion-electron system (eV)
  ---------------------------------------------------
  alpha Z        PSCENC =       807.37569341
  Ewald energy   TEWEN  =    135761.66110132
  -Hartree energ DENC   =   -163582.56119577
  -exchange      EXHF   =         0.00000000
  -V(xc)+E(xc)   XCENC  =     -2386.77308316
  PAW double counting   =     28103.01804542   -24056.75103282
  entropy T*S    EENTRO =         0.00868376
  eigenvalues    EBANDS =      1016.60762738
  atomic energy  EATOM  =     30935.05207088
  Solvation  Ediel_sol  =         0.00000000
  ---------------------------------------------------
  free energy    TOTEN  =      6597.63791042 eV

  energy without entropy =     6597.62922666  energy(sigma->0) =     6597.63573948


--------------------------------------------------------------------------------------------------------




----------------------------------------- Iteration    1(   2)  ---------------------------------------


     EDDAV:  cpu time   23.7617: real time   23.7729
       DOS:  cpu time    0.0017: real time    0.0017
    --------------------------------------------
      LOOP:  cpu time   23.7649: real time   23.7773

 eigenvalue-minimisations  :  3080
 total energy-change (2. order) :-0.5508383E+04  (-0.5329424E+04)
 number of electron     494.0000000 magnetization 
 augmentation part      494.0000000 magnetization 

 Free energy of the ion-electron system (eV)
  ---------------------------------------------------
  alpha Z        PSCENC =       807.37569341
  Ewald energy   TEWEN  =    135761.66110132
  -Hartree energ DENC   =   -163582.56119577
  -exchange      EXHF   =         0.00000000
  -V(xc)+E(xc)   XCENC  =     -2386.77308316
  PAW double counting   =     28103.01804542   -24056.75103282
  entropy T*S    EENTRO =        -0.00765637
  eigenvalues    EBANDS =     -4491.75888217
  atomic energy  EATOM  =     30935.05207088
  Solvation  Ediel_sol  =         0.00000000
  ---------------------------------------------------
  free energy    TOTEN  =      1089.25506074 eV

  energy without entropy =     1089.26271711  energy(sigma->0) =     1089.25697483


--------------------------------------------------------------------------------------------------------




----------------------------------------- Iteration    1(   3)  ---------------------------------------


     EDDAV:  cpu time   37.1677: real time   37.1846
       DOS:  cpu time    0.0018: real time    0.0018
    --------------------------------------------
      LOOP:  cpu time   37.1708: real time   37.1891

 eigenvalue-minimisations  :  5328
 total energy-change (2. order) :-0.1685868E+04  (-0.1633613E+04)
 number of electron     494.0000000 magnetization 
 augmentation part      494.0000000 magnetization 

 Free energy of the ion-electron system (eV)
  ---------------------------------------------------
  alpha Z        PSCENC =       807.37569341
  Ewald energy   TEWEN  =    135761.66110132
  -Hartree energ DENC   =   -163582.56119577
  -exchange      EXHF   =         0.00000000
  -V(xc)+E(xc)   XCENC  =     -2386.77308316
  PAW double counting   =     28103.01804542   -24056.75103282
  entropy T*S    EENTRO =        -0.00581542
  eigenvalues    EBANDS =     -6177.62835461
  atomic energy  EATOM  =     30935.05207088
  Solvation  Ediel_sol  =         0.00000000
  ---------------------------------------------------
  free energy    TOTEN  =      -596.61257075 eV

  energy without entropy =     -596.60675533  energy(sigma->0) =     -596.61111690


--------------------------------------------------------------------------------------------------------




----------------------------------------- Iteration    1(   4)  ---------------------------------------


     EDDAV:  cpu time   31.8136: real time   31.8290
       DOS:  cpu time    0.0017: real time    0.0017
    --------------------------------------------
      LOOP:  cpu time   31.8174: real time   31.8342

 eigenvalue-minimisations  :  4432
 total energy-change (2. order) :-0.2506921E+03  (-0.2436885E+03)
 number of electron     494.0000000 magnetization 
 augmentation part      494.0000000 magnetization 

 Free energy of the ion-electron system (eV)
  ---------------------------------------------------
  alpha Z        PSCENC =       807.37569341
  Ewald energy   TEWEN  =    135761.66110132
  -Hartree energ DENC   =   -163582.56119577
  -exchange      EXHF   =         0.00000000
  -V(xc)+E(xc)   XCENC  =     -2386.77308316
  PAW double counting   =     28103.01804542   -24056.75103282
  entropy T*S    EENTRO =         0.00070982
  eigenvalues    EBANDS =     -6428.32698874
  atomic energy  EATOM  =     30935.05207088
  Solvation  Ediel_sol  =         0.00000000
  ---------------------------------------------------
  free energy    TOTEN  =      -847.30467964 eV

  energy without entropy =     -847.30538946  energy(sigma->0) =     -847.30485710


--------------------------------------------------------------------------------------------------------




----------------------------------------- Iteration    1(   5)  ---------------------------------------


     EDDAV:  cpu time   37.6040: real time   37.6215
       DOS:  cpu time    0.0018: real time    0.0018
    CHARGE:  cpu time    0.3725: real time    0.3739
    MIXING:  cpu time    0.0078: real time    0.0087
    --------------------------------------------
      LOOP:  cpu time   37.9875: real time   38.0087

 eigenvalue-minimisations  :  5400
 total energy-change (2. order) :-0.1882326E+02  (-0.1839002E+02)
 number of electron     494.0000006 magnetization 
 augmentation part       59.2682130 magnetization 

 Broyden mixing:
  rms(total) = 0.85614E+01    rms(broyden)= 0.85611E+01
  rms(prec ) = 0.89835E+01
  weight for this iteration     100.00

 Free energy of the ion-electron system (eV)
  ---------------------------------------------------
  alpha Z        PSCENC =       807.37569341
  Ewald energy   TEWEN  =    135761.66110132
  -Hartree energ DENC   =   -163582.56119577
  -exchange      EXHF   =         0.00000000
  -V(xc)+E(xc)   XCENC  =     -2386.77308316
  PAW double counting   =     28103.01804542   -24056.75103282
  entropy T*S    EENTRO =        -0.00727526
  eigenvalues    EBANDS =     -6447.14226857
  atomic energy  EATOM  =     30935.05207088
  Solvation  Ediel_sol  =         0.00000000
  ---------------------------------------------------
  free energy    TOTEN  =      -866.12794456 eV

  energy without entropy =     -866.12066930  energy(sigma->0) =     -866.12612574


--------------------------------------------------------------------------------------------------------




----------------------------------------- Iteration    1(   6)  ---------------------------------------


    POTLOK:  cpu time    0.0995: real time    0.0995
    SETDIJ:  cpu time    0.0096: real time    0.0096
    EDDIAG:  cpu time    1.4939: real time    1.4960
  RMM-DIIS:  cpu time   26.7569: real time   26.7690
    ORTHCH:  cpu time    0.3977: real time    0.3980
       DOS:  cpu time    0.0017: real time    0.0017
    CHARGE:  cpu time    0.3652: real time    0.3652
    MIXING:  cpu time    0.0055: real time    0.0084
    --------------------------------------------
      LOOP:  cpu time   29.1323: real time   29.1515

 eigenvalue-minimisations  :  4847
 total energy-change (2. order) :-0.1303927E+00  (-0.1567889E+03)
 number of electron     493.9999998 magnetization 
 augmentation part       73.2827685 magnetization 

 Broyden mixing:
  rms(total) = 0.51468E+01    rms(broyden)= 0.51465E+01
  rms(prec ) = 0.64630E+01
  weight for this iteration     100.00

 eigenvalues of (default mixing * dielectric matrix)
  average eigenvalue GAMMA=   0.7908
  0.7908

 Free energy of the ion-electron system (eV)
  ---------------------------------------------------
  alpha Z        PSCENC =       807.37569341
  Ewald energy   TEWEN  =    135761.66110132
  -Hartree energ DENC   =   -164652.95055765
  -exchange      EXHF   =         0.00000000
  -V(xc)+E(xc)   XCENC  =     -2340.45024405
  PAW double counting   =     33510.46530676   -29476.39630227
  entropy T*S    EENTRO =        -0.00757624
  eigenvalues    EBANDS =     -5411.00782944
  atomic energy  EATOM  =     30935.05207088
  Solvation  Ediel_sol  =         0.00000000
  ---------------------------------------------------
  free energy    TOTEN  =      -866.25833728 eV

  energy without entropy =     -866.25076104  energy(sigma->0) =     -866.25644322


--------------------------------------------------------------------------------------------------------




----------------------------------------- Iteration    1(   7)  ---------------------------------------


    POTLOK:  cpu time    0.0968: real time    0.0968
    SETDIJ:  cpu time    0.0093: real time    0.0093
    EDDIAG:  cpu time    1.4941: real time    1.4949
  RMM-DIIS:  cpu time   22.8001: real time   22.8100
    ORTHCH:  cpu time    0.3954: real time    0.3955
       DOS:  cpu time    0.0018: real time    0.0018
    CHARGE:  cpu time    0.3757: real time    0.3758
    MIXING:  cpu time    0.0037: real time    0.0042
    --------------------------------------------
      LOOP:  cpu time   25.1787: real time   25.1918

 eigenvalue-minimisations  :  4097
 total energy-change (2. order) :-0.4236619E+01  (-0.4360475E+02)
 number of electron     494.0000009 magnetization 
 augmentation part       70.3753803 magnetization 

 Broyden mixing:
  rms(total) = 0.46552E+01    rms(broyden)= 0.46552E+01
  rms(prec ) = 0.75281E+01
  weight for this iteration     100.00

 eigenvalues of (default mixing * dielectric matrix)
  average eigenvalue GAMMA=   0.6881
  1.0086  0.3676

 Free energy of the ion-electron system (eV)
  ---------------------------------------------------
  alpha Z        PSCENC =       807.37569341
  Ewald energy   TEWEN  =    135761.66110132
  -Hartree energ DENC   =   -163839.65047523
  -exchange      EXHF   =         0.00000000
  -V(xc)+E(xc)   XCENC  =     -2346.99797273
  PAW double counting   =     34448.96563537   -30428.17863500
  entropy T*S    EENTRO =         0.02074231
  eigenvalues    EBANDS =     -6208.74311686
  atomic energy  EATOM  =     30935.05207088
  Solvation  Ediel_sol  =         0.00000000
  ---------------------------------------------------
  free energy    TOTEN  =      -870.49495653 eV

  energy without entropy =     -870.51569885  energy(sigma->0) =     -870.50014211


--------------------------------------------------------------------------------------------------------




----------------------------------------- Iteration    1(   8)  ---------------------------------------


    POTLOK:  cpu time    0.0959: real time    0.0959
    SETDIJ:  cpu time    0.0095: real time    0.0095
    EDDIAG:  cpu time    1.4941: real time    1.4950
  RMM-DIIS:  cpu time   25.9236: real time   25.9355
    ORTHCH:  cpu time    0.3961: real time    0.3961
       DOS:  cpu time    0.0018: real time    0.0018
    CHARGE:  cpu time    0.3739: real time    0.3742
    MIXING:  cpu time    0.0038: real time    0.0045
    --------------------------------------------
      LOOP:  cpu time   28.3006: real time   28.3161

 eigenvalue-minimisations  :  4682
 total energy-change (2. order) : 0.5780935E+02  (-0.2403747E+02)
 number of electron     494.0000008 magnetization 
 augmentation part       59.5766817 magnetization 

 Broyden mixing:
  rms(total) = 0.37624E+01    rms(broyden)= 0.37624E+01
  rms(prec ) = 0.55746E+01
  weight for this iteration     100.00

 eigenvalues of (default mixing * dielectric matrix)
  average eigenvalue GAMMA=   0.6450
  1.2661  0.4132  0.2557

 Free energy of the ion-electron system (eV)
  ---------------------------------------------------
  alpha Z        PSCENC =       807.37569341
  Ewald energy   TEWEN  =    135761.66110132
  -Hartree energ DENC   =   -164381.58755330
  -exchange      EXHF   =         0.00000000
  -V(xc)+E(xc)   XCENC  =     -2348.68097978
  PAW double counting   =     35548.54233731   -31531.26302564
  entropy T*S    EENTRO =         0.00644402
  eigenvalues    EBANDS =     -5603.79169844
  atomic energy  EATOM  =     30935.05207088
  Solvation  Ediel_sol  =         0.00000000
  ---------------------------------------------------
  free energy    TOTEN  =      -812.68561023 eV

  energy without entropy =     -812.69205425  energy(sigma->0) =     -812.68722124


--------------------------------------------------------------------------------------------------------




----------------------------------------- Iteration    1(   9)  ---------------------------------------


    POTLOK:  cpu time    0.0956: real time    0.0956
    SETDIJ:  cpu time    0.0094: real time    0.0094
    EDDIAG:  cpu time    1.4794: real time    1.4798
  RMM-DIIS:  cpu time   22.6195: real time   22.6298
    ORTHCH:  cpu time    0.3957: real time    0.3957
       DOS:  cpu time    0.0019: real time    0.0019
    CHARGE:  cpu time    0.3686: real time    0.3689
    MIXING:  cpu time    0.0039: real time    0.0039
    --------------------------------------------
      LOOP:  cpu time   24.9758: real time   24.9898

 eigenvalue-minimisations  :  4084
 total energy-change (2. order) : 0.5064556E+02  (-0.7434048E+01)
 number of electron     494.0000005 magnetization 
 augmentation part       61.0426922 magnetization 

 Broyden mixing:
  rms(total) = 0.23353E+01    rms(broyden)= 0.23352E+01
  rms(prec ) = 0.27400E+01
  weight for this iteration     100.00

 eigenvalues of (default mixing * dielectric matrix)
  average eigenvalue GAMMA=   0.7031
  1.6005  0.4994  0.4994  0.2131

 Free energy of the ion-electron system (eV)
  ---------------------------------------------------
  alpha Z        PSCENC =       807.37569341
  Ewald energy   TEWEN  =    135761.66110132
  -Hartree energ DENC   =   -164274.75523060
  -exchange      EXHF   =         0.00000000
  -V(xc)+E(xc)   XCENC  =     -2346.32976534
  PAW double counting   =     36709.90046360   -32685.61675541
  entropy T*S    EENTRO =        -0.00238765
  eigenvalues    EBANDS =     -5669.32523685
  atomic energy  EATOM  =     30935.05207088
  Solvation  Ediel_sol  =         0.00000000
  ---------------------------------------------------
  free energy    TOTEN  =      -762.04004664 eV

  energy without entropy =     -762.03765899  energy(sigma->0) =     -762.03944973


--------------------------------------------------------------------------------------------------------




----------------------------------------- Iteration    1(  10)  ---------------------------------------


    POTLOK:  cpu time    0.0959: real time    0.0959
    SETDIJ:  cpu time    0.0095: real time    0.0095
    EDDIAG:  cpu time    1.4889: real time    1.4895
  RMM-DIIS:  cpu time   22.4052: real time   22.4154
    ORTHCH:  cpu time    0.3954: real time    0.3955
       DOS:  cpu time    0.0019: real time    0.0019
    CHARGE:  cpu time    0.3657: real time    0.3657
    MIXING:  cpu time    0.0042: real time    0.0042
    --------------------------------------------
      LOOP:  cpu time   24.7685: real time   24.7813

 eigenvalue-minimisations  :  4046
 total energy-change (2. order) : 0.8409643E+01  (-0.7962985E+01)
 number of electron     494.0000008 magnetization 
 augmentation part       65.9808971 magnetization 

 Broyden mixing:
  rms(total) = 0.13991E+01    rms(broyden)= 0.13991E+01
  rms(prec ) = 0.17065E+01
  weight for this iteration     100.00

 eigenvalues of (default mixing * dielectric matrix)
  average eigenvalue GAMMA=   0.7335
  1.9050  0.6621  0.5439  0.3601  0.1962

 Free energy of the ion-electron system (eV)
  ---------------------------------------------------
  alpha Z        PSCENC =       807.37569341
  Ewald energy   TEWEN  =    135761.66110132
  -Hartree energ DENC   =   -164415.04134785
  -exchange      EXHF   =         0.00000000
  -V(xc)+E(xc)   XCENC  =     -2340.83055005
  PAW double counting   =     37849.28727102   -33816.21147733
  entropy T*S    EENTRO =        -0.00423698
  eigenvalues    EBANDS =     -5534.91892824
  atomic energy  EATOM  =     30935.05207088
  Solvation  Ediel_sol  =         0.00000000
  ---------------------------------------------------
  free energy    TOTEN  =      -753.63040383 eV

  energy without entropy =     -753.62616685  energy(sigma->0) =     -753.62934458


--------------------------------------------------------------------------------------------------------




----------------------------------------- Iteration    1(  11)  ---------------------------------------


    POTLOK:  cpu time    0.0959: real time    0.0963
    SETDIJ:  cpu time    0.0093: real time    0.0093
    EDDIAG:  cpu time    1.5024: real time    1.5029
  RMM-DIIS:  cpu time   24.8875: real time   24.8982
    ORTHCH:  cpu time    0.3945: real time    0.3945
       DOS:  cpu time    0.0018: real time    0.0018
    CHARGE:  cpu time    0.3687: real time    0.3690
    MIXING:  cpu time    0.0043: real time    0.0043
    --------------------------------------------
      LOOP:  cpu time   27.2662: real time   27.2799

 eigenvalue-minimisations  :  4498
 total energy-change (2. order) : 0.4727025E+00  (-0.5113925E+01)
 number of electron     494.0000005 magnetization 
 augmentation part       66.3590002 magnetization 

 Broyden mixing:
  rms(total) = 0.12584E+01    rms(broyden)= 0.12584E+01
  rms(prec ) = 0.15183E+01
  weight for this iteration     100.00

 eigenvalues of (default mixing * dielectric matrix)
  average eigenvalue GAMMA=   0.6991
  1.9420  0.8373  0.4640  0.4640  0.1971  0.2900

[...]
   -.696E+01 0.445E+00 0.351E+03   0.969E+01 0.298E+00 -.352E+03   -.275E+01 -.746E+00 0.696E+00   -.438E-02 0.626E-02 -.452E-02
   -.341E+03 0.766E+00 0.145E+04   0.341E+03 -.983E+00 -.144E+04   -.850E+00 0.524E+00 -.137E+01   -.338E-03 0.528E-02 -.527E-02
   -.326E+03 0.128E+03 -.162E+04   0.328E+03 -.128E+03 0.162E+04   -.256E+01 -.560E-01 0.191E+01   0.345E-02 0.201E-03 -.208E-02
   0.280E+03 -.124E+03 0.210E+04   -.280E+03 0.125E+03 -.209E+04   0.247E+00 -.409E+00 -.426E+01   0.967E-04 0.253E-02 -.827E-03
   0.198E+03 0.845E+02 0.508E+03   -.196E+03 -.865E+02 -.510E+03   -.203E+01 0.204E+01 0.195E+01   -.136E-02 -.372E-02 -.261E-02
   -.351E+02 -.109E+02 0.475E+03   0.342E+02 0.109E+02 -.476E+03   0.106E+01 -.129E+00 0.503E+00   0.400E-03 -.814E-03 -.154E-02
   0.162E+02 -.251E+01 -.487E+03   -.182E+02 0.156E+01 0.487E+03   0.201E+01 0.978E+00 -.236E+00   -.271E-03 -.325E-03 -.197E-02
   0.163E+03 -.232E+02 0.464E+03   -.162E+03 0.231E+02 -.465E+03   -.150E+01 0.394E+00 0.577E+00   -.101E-02 0.712E-03 -.626E-03
   0.227E+03 0.471E+02 -.486E+03   -.226E+03 -.461E+02 0.487E+03   -.432E+00 -.102E+01 -.102E+01   -.142E-02 0.276E-03 -.165E-02
   0.102E+03 -.671E+02 0.168E+03   -.101E+03 0.680E+02 -.171E+03   -.120E+01 -.891E+00 0.232E+01   -.117E-02 0.323E-04 -.464E-03
   0.114E+03 -.540E+02 0.639E+03   -.113E+03 0.540E+02 -.636E+03   -.777E+00 -.181E+00 -.273E+01   0.479E-03 0.804E-04 0.250E-03
   -.141E+03 0.391E+02 0.109E+03   0.142E+03 -.384E+02 -.111E+03   -.936E+00 -.801E+00 0.150E+01   0.104E-03 -.477E-03 -.610E-03
   -.978E+02 0.603E+02 0.689E+03   0.973E+02 -.599E+02 -.686E+03   0.428E+00 -.370E+00 -.274E+01   -.565E-03 0.103E-02 0.808E-04
   0.592E+02 -.275E+02 0.392E+03   -.601E+02 0.268E+02 -.392E+03   0.953E+00 0.720E+00 -.784E+00   -.132E-03 0.209E-02 -.719E-03
   0.402E+02 0.470E+02 -.423E+03   -.397E+02 -.482E+02 0.424E+03   -.433E+00 0.118E+01 -.152E+01   -.557E-03 0.948E-04 -.104E-02
   -.150E+03 0.976E+01 -.358E+03   0.150E+03 -.102E+02 0.359E+03   0.431E+00 0.575E+00 -.121E+00   0.139E-02 -.713E-03 -.318E-03
   -.154E+03 0.121E+01 0.425E+03   0.154E+03 -.142E+01 -.425E+03   0.426E+00 -.881E-01 0.243E+00   -.193E-04 0.101E-02 -.133E-02
   -.146E+03 -.485E+01 0.655E+03   0.145E+03 0.489E+01 -.651E+03   0.817E+00 -.112E+00 -.266E+01   -.377E-03 -.104E-02 0.141E-03
   -.134E+03 0.405E+02 0.130E+03   0.132E+03 -.407E+02 -.131E+03   0.177E+01 0.186E+00 0.642E+00   0.924E-03 0.780E-03 -.114E-02
   0.597E+02 0.201E+02 0.419E+03   -.598E+02 -.195E+02 -.420E+03   0.294E+00 -.742E-01 -.175E+00   0.963E-03 -.223E-02 -.116E-02
   0.970E+02 -.292E+02 -.490E+03   -.955E+02 0.307E+02 0.490E+03   -.144E+01 -.148E+01 0.523E+00   -.529E-04 -.417E-03 -.104E-02
   0.493E+02 -.258E+02 0.199E+03   -.488E+02 0.264E+02 -.201E+03   -.412E+00 -.562E+00 0.281E+01   -.712E-03 0.404E-03 0.432E-04
   0.308E+02 0.997E+00 0.668E+03   -.315E+02 -.104E+01 -.665E+03   0.602E+00 -.213E-01 -.251E+01   0.913E-03 0.317E-03 0.515E-04
   0.119E+03 0.152E+00 0.408E+03   -.118E+03 -.170E+00 -.408E+03   -.955E+00 0.654E+00 -.521E+00   -.868E-03 0.159E-03 -.464E-03
   0.102E+03 0.309E+02 -.450E+03   -.101E+03 -.293E+02 0.448E+03   -.151E+01 -.167E+01 0.145E+01   -.391E-03 -.511E-04 -.124E-02
   0.125E+03 0.205E+02 0.474E+03   -.125E+03 -.203E+02 -.475E+03   0.150E+00 -.516E+00 0.158E+01   -.152E-02 -.441E-03 -.451E-03
   0.101E+03 -.617E+02 -.391E+03   -.102E+03 0.614E+02 0.391E+03   0.133E+01 0.315E+00 0.440E+00   -.677E-03 -.277E-03 -.129E-02
   0.124E+03 0.368E+02 0.614E+03   -.124E+03 -.366E+02 -.611E+03   0.184E+00 -.555E+00 -.307E+01   -.105E-02 0.777E-04 -.229E-03
   0.138E+03 0.896E+02 0.935E+02   -.138E+03 -.904E+02 -.945E+02   -.386E+00 0.746E+00 0.976E+00   -.423E-03 0.138E-04 -.121E-02
   -.934E+02 -.172E+01 0.660E+03   0.937E+02 0.180E+01 -.656E+03   -.409E+00 -.102E+00 -.327E+01   0.718E-04 0.870E-03 0.326E-05
   -.146E+03 -.300E+02 0.103E+03   0.146E+03 0.308E+02 -.103E+03   0.594E+00 -.764E+00 -.934E-01   0.134E-02 -.627E-03 -.145E-02
   0.125E+03 0.313E+02 0.636E+03   -.124E+03 -.315E+02 -.634E+03   -.208E+00 0.331E+00 -.251E+01   0.147E-03 -.106E-02 -.672E-03
   0.137E+03 -.388E+02 0.123E+03   -.137E+03 0.398E+02 -.125E+03   -.994E-01 -.102E+01 0.209E+01   -.250E-03 0.508E-03 -.106E-02
   0.900E+02 -.431E+02 -.595E+03   -.894E+02 0.408E+02 0.593E+03   -.572E+00 0.230E+01 0.201E+01   -.377E-03 0.151E-03 -.643E-03
   0.112E+03 0.893E+01 0.432E+03   -.112E+03 -.905E+01 -.432E+03   0.207E+00 -.743E-01 -.666E+00   0.489E-03 -.159E-03 -.470E-03
   0.451E+02 -.225E+00 0.431E+03   -.452E+02 0.234E+00 -.432E+03   0.413E+00 0.612E-01 0.640E+00   -.314E-03 -.301E-03 -.547E-03
   -.219E+02 0.197E+02 -.425E+03   0.211E+02 -.212E+02 0.423E+03   0.784E+00 0.144E+01 0.141E+01   0.189E-03 0.301E-03 -.133E-02
   -.352E+02 0.229E+00 0.617E+03   0.356E+02 0.785E-01 -.613E+03   -.194E+00 -.186E+00 -.306E+01   0.458E-03 -.649E-03 0.610E-03
   -.123E+03 -.176E+02 0.133E+03   0.123E+03 0.184E+02 -.133E+03   0.333E-01 -.841E+00 0.521E+00   0.770E-03 0.713E-03 -.141E-02
   0.522E+02 -.608E+01 0.601E+03   -.523E+02 0.533E+01 -.598E+03   -.609E-02 0.266E+00 -.312E+01   -.389E-04 -.186E-03 0.567E-03
   0.612E+02 0.376E+02 0.620E+02   -.608E+02 -.382E+02 -.622E+02   -.490E+00 0.613E+00 0.197E+00   -.191E-03 0.125E-03 -.121E-02
   -.545E+02 0.464E+01 0.408E+03   0.549E+02 -.430E+01 -.408E+03   -.226E+00 0.317E+00 0.156E+00   0.105E-03 0.138E-03 -.540E-03
   -.639E+02 -.765E+02 -.482E+03   0.650E+02 0.772E+02 0.481E+03   -.108E+01 -.640E+00 0.173E+01   0.390E-03 -.159E-03 -.894E-03
   0.430E+02 0.393E+01 0.614E+03   -.423E+02 -.381E+01 -.610E+03   -.804E+00 -.324E+00 -.337E+01   -.499E-03 0.217E-03 0.491E-03
   0.213E+02 -.893E+02 0.118E+03   -.212E+02 0.902E+02 -.118E+03   -.132E+00 -.905E+00 0.506E+00   0.769E-04 -.377E-04 -.122E-02
   -.886E+02 -.985E+01 0.406E+03   0.882E+02 0.946E+01 -.407E+03   0.679E+00 0.124E+00 -.608E-02   0.857E-03 0.244E-03 -.103E-02
   -.135E+03 0.965E+01 -.494E+03   0.133E+03 -.102E+02 0.493E+03   0.234E+01 0.524E+00 0.899E+00   0.547E-03 0.386E-03 -.119E-02
   0.684E+02 0.494E+02 -.392E+03   -.678E+02 -.490E+02 0.393E+03   -.634E+00 -.386E+00 -.962E+00   -.342E-03 -.292E-03 -.127E-02
   0.534E+02 -.150E+01 0.407E+03   -.528E+02 0.143E+01 -.407E+03   -.890E+00 0.307E+00 0.250E-01   -.335E-03 0.226E-03 -.261E-03
   -.140E+03 -.437E+02 0.686E+03   0.139E+03 0.430E+02 -.682E+03   0.826E+00 0.124E+00 -.335E+01   0.268E-03 -.890E-03 -.540E-03
   -.918E+02 -.307E+02 0.168E+03   0.916E+02 0.301E+02 -.168E+03   0.219E+00 0.600E+00 -.276E+00   -.571E-03 0.655E-03 -.191E-02
   -.136E+03 0.111E+02 0.404E+03   0.136E+03 -.108E+02 -.405E+03   0.243E+00 0.116E+00 0.267E+00   0.142E-02 -.111E-02 -.102E-02
   -.133E+03 -.334E+02 -.554E+03   0.133E+03 0.323E+02 0.553E+03   0.870E-01 0.117E+01 0.145E+01   0.799E-03 0.245E-03 -.832E-03
   0.146E+03 -.270E+02 -.931E+03   -.147E+03 0.298E+02 0.941E+03   0.119E+01 -.278E+01 -.101E+02   -.701E-03 -.217E-02 -.566E-03
   -.126E+03 0.210E+02 -.105E+04   0.129E+03 -.226E+02 0.107E+04   -.281E+01 0.162E+01 -.177E+02   0.640E-03 0.992E-03 -.157E-02
   0.186E+03 0.362E+02 -.653E+03   -.186E+03 -.381E+02 0.659E+03   -.126E+00 0.189E+01 -.583E+01   -.225E-02 0.157E-02 -.213E-02
   -.117E+03 0.361E+02 -.822E+03   0.117E+03 -.351E+02 0.832E+03   -.624E+00 -.925E+00 -.973E+01   0.441E-03 -.357E-03 -.205E-02
   0.160E+03 0.308E+02 -.102E+04   -.162E+03 -.353E+02 0.104E+04   0.204E+01 0.443E+01 -.188E+02   -.402E-03 -.242E-03 -.201E-02
   0.127E+03 0.399E+02 -.106E+04   -.126E+03 -.382E+02 0.108E+04   -.169E+01 -.171E+01 -.226E+02   -.251E-02 0.133E-02 -.504E-06
   -.104E+03 -.147E+03 -.109E+04   0.103E+03 0.151E+03 0.111E+04   0.113E+01 -.425E+01 -.168E+02   -.101E-03 0.716E-03 -.665E-03
   0.883E+02 -.253E+02 -.113E+04   -.897E+02 0.304E+02 0.115E+04   0.138E+01 -.509E+01 -.237E+02   0.136E-02 -.896E-04 0.606E-03
   0.507E+02 -.460E+02 -.102E+04   -.476E+02 0.434E+02 0.104E+04   -.310E+01 0.267E+01 -.192E+02   -.853E-03 -.312E-03 -.148E-02
   0.106E+03 0.627E+02 -.106E+04   -.111E+03 -.586E+02 0.108E+04   0.490E+01 -.407E+01 -.172E+02   0.909E-03 -.631E-03 -.120E-03
   0.956E+02 0.778E+01 -.113E+04   -.974E+02 -.167E+02 0.115E+04   0.182E+01 0.897E+01 -.202E+02   -.859E-03 0.184E-02 0.358E-04
   -.213E+03 -.236E+02 -.119E+04   0.212E+03 0.288E+02 0.122E+04   0.635E+00 -.520E+01 -.211E+02   0.121E-02 -.305E-03 -.108E-02
   -.264E+03 -.299E+02 -.957E+03   0.264E+03 0.309E+02 0.966E+03   0.124E+00 -.966E+00 -.907E+01   0.252E-02 -.304E-03 -.668E-03
   0.115E+03 0.192E+02 -.122E+04   -.115E+03 -.173E+02 0.124E+04   -.628E+00 -.180E+01 -.248E+02   -.978E-03 -.964E-03 0.653E-03
   -.102E+03 -.558E+01 -.660E+03   0.105E+03 0.688E+01 0.666E+03   -.317E+01 -.126E+01 -.604E+01   0.103E-03 -.496E-03 0.122E-02
   0.136E+03 -.922E+02 -.231E+03   -.135E+03 0.932E+02 0.230E+03   -.725E+00 -.986E+00 0.137E+01   -.537E-03 -.738E-03 -.207E-02
   -.135E+03 -.112E+02 -.212E+03   0.131E+03 0.111E+02 0.212E+03   0.349E+01 0.103E+00 0.368E+00   0.757E-03 0.119E-02 -.249E-02
   0.980E+02 0.101E+02 0.124E+03   -.980E+02 -.106E+02 -.124E+03   -.376E-01 0.524E+00 -.955E-01   0.137E-03 -.582E-03 -.230E-02
   -.213E+03 -.684E+02 -.106E+03   0.211E+03 0.671E+02 0.108E+03   0.166E+01 0.107E+01 -.189E+01   0.132E-02 0.226E-02 -.166E-02
   0.313E+03 0.672E+02 0.166E+03   -.317E+03 -.690E+02 -.170E+03   0.430E+01 0.179E+01 0.462E+01   -.136E-02 0.421E-03 -.435E-03
   0.175E+03 -.298E+02 -.293E+03   -.178E+03 0.289E+02 0.288E+03   0.239E+01 0.882E+00 0.454E+01   -.958E-03 0.429E-03 -.163E-02
   -.644E+01 0.345E+02 -.159E+03   0.849E+01 -.370E+02 0.160E+03   -.204E+01 0.259E+01 -.112E+01   -.140E-02 -.279E-03 -.102E-02
   0.132E+03 -.781E+02 -.321E+03   -.128E+03 0.842E+02 0.321E+03   -.390E+01 -.613E+01 -.122E+00   -.249E-02 0.641E-03 -.170E-02
   -.129E+03 -.251E+02 -.238E+02   0.127E+03 0.290E+02 0.260E+02   0.183E+01 -.384E+01 -.230E+01   0.312E-02 -.114E-03 -.682E-03
   -.147E+03 0.752E+02 -.132E+03   0.149E+03 -.785E+02 0.129E+03   -.187E+01 0.306E+01 0.299E+01   0.808E-03 -.348E-03 -.236E-02
 -----------------------------------------------------------------------------------------------
   -.111E+02 0.675E+01 0.254E+03   0.796E-12 -.711E-13 0.108E-10   0.111E+02 -.675E+01 -.254E+03   -.998E-03 0.182E-02 -.999E-01
 
 
 POSITION                                       TOTAL-FORCE (eV/Angst)
 -----------------------------------------------------------------------------------
      8.57631      8.29685     10.39845        -0.039802     -0.153792      0.143447
      8.52768      3.51564     15.05667        -0.050385      0.041984     -0.049476
      8.12173      6.26061     17.66924         0.031464      0.034947      0.001308
      8.51616      0.79995     12.43874        -0.122328     -0.124183     -0.081697
     13.41499      6.12275     15.04025         0.025489     -0.034636      0.013835
     13.49094      1.15316     10.44749         0.022520     -0.410500     -0.021405
     10.03344      3.28428     12.67411        -0.093244      0.407988     -0.448097
     10.01224      8.38388     17.59603         0.044775      0.077823     -0.085828
      7.12524      5.81577     10.15765        -0.220463     -0.410465      0.946475
      6.99402      1.09636     15.11875         0.046079      0.036757     -0.006611
      8.51222      3.28036     10.20450         0.284580      0.084676      0.741292
      8.44340      8.27985     15.13829        -0.019708      0.003764     -0.042043
     10.22263      8.06723     12.77991        -0.266220      0.311841     -0.530257
     10.33663      4.06483     17.84653         0.026453      0.007895     -0.007011
      5.42664      8.10481     10.20639         0.297512      0.107544      0.927098
      5.55533      3.30560     14.87527        -0.013606      0.006641     -0.008973
      8.52843      5.75423     12.65640         0.182061     -0.141907      0.073525
      8.57976      1.42501     17.42844         0.003301      0.027979      0.012814
      3.84829      7.97317     12.47259        -0.410483      0.278447     -0.324205
      3.86522      3.50476     17.16960         0.001542      0.001783     -0.003177
      3.80854      5.54265     14.99412         0.002339     -0.003600      0.004132
      3.90063      0.73891     10.00000         0.492792     -0.121181      0.249475
      9.91775      6.00619     15.46818         0.006541     -0.017093     -0.034515
     10.19112      1.10470     10.13736        -0.162349      0.060655      0.414263
      6.82945      7.99424     12.66670         0.048931      0.079335     -0.529881
      6.82021      3.70782     17.39849         0.029498      0.012333     -0.012816
     11.97362      6.46095     17.62496        -0.013421      0.092258      0.137074
     11.66772      1.05372     12.57547        -0.238525     -0.294130     -0.719090
     11.73919      3.33868     10.41199        -0.264278     -0.075747      0.583802
     11.54966      8.13984     15.05116         0.034634     -0.088698     -0.072189
      7.18522      3.24644     12.75390         0.171564      0.465180     -0.821090
      7.11821      8.76176     17.74376         0.040845      0.004598      0.015493
      6.84249      5.75470     14.89316         0.003283      0.008467      0.013033
      6.87795      0.97560     10.08695        -0.083525     -0.059542      0.185240
      5.51084      5.55012     12.48419        -0.350204      0.636809     -0.218648
      5.51962      1.16360     17.65906         0.014413      0.004247     -0.032679
      3.51249      3.50019     12.83519        -0.174733     -0.394282      0.016241
      3.24164      8.91429     17.56520         0.011491      0.014856      0.021357
      3.46798      5.87237     10.40868         0.048309     -0.324722     -0.218926
      3.48544      1.23319     15.12716        -0.009183     -0.002466      0.004103
     11.91771      8.21633     10.24534        -0.145258     -0.016510      0.661817
     11.77441      3.76301     15.36155        -0.010964     -0.010567     -0.001900
      5.24135      3.36543     10.32679         0.116300      0.074940      0.067298
      5.22592      8.24974     15.05639         0.003330      0.024733      0.010813
      5.14754      6.48762     17.99491         0.030555      0.002234     -0.014543
      5.28930      0.99064     12.60849         0.159907     -0.197737     -0.461315
      1.60538      5.84491     12.85122         0.309036      0.069622     -0.727366
      1.38584      1.64586     17.66080        -0.001071      0.007854      0.016567
     13.72038      5.67134     10.18293         0.204144      0.121330      0.557220
     13.60863      0.83422     15.12966        -0.036321     -0.107601      0.094107
      1.63456      8.33987     10.36453        -0.082286     -0.487841      0.202910
      1.25923      3.65412     15.27056        -0.036515     -0.045533      0.019397
     13.76831      3.16119     12.53308         0.107047      0.655319     -0.081239
      0.48705      8.34874     17.89199         0.027266      0.031406     -0.013889
      1.99440      3.17314     10.17666        -0.125034     -0.207587      0.602604
      2.03158      8.11138     15.09819         0.027387     -0.025446      0.027183
     13.48051      8.37930     12.86886         0.258847     -0.265565     -1.201315
     13.27686      4.05063     18.10430        -0.008416      0.021798      0.026569
      2.07811      5.94827     17.45167         0.014350     -0.011468      0.009543
      2.02729      0.87737     12.46815        -0.261157      0.244064     -0.179364
     10.07171      5.79402     10.14663         0.171397     -0.586085      0.246608
     10.09677      1.05151     14.86898         0.008203      0.009133      0.039200
     11.97051      5.66181     12.67660        -0.584697      0.422075     -0.372996
     12.17175      1.07272     18.07873        -0.080959      0.132692     -0.063712
      5.13835      8.64329     18.26384         0.030043      0.006227     -0.030118
     13.64749      2.22643     19.05966        -0.020414     -0.002651      0.014321
      3.48954      1.41027     17.53193         0.000754      0.020103      0.003189
      0.12253      6.15430     18.22416        -0.003998      0.035582     -0.045931
      3.71103      5.12745     18.51818         0.033353      0.003507      0.008769
      5.35475      2.99174     18.44944         0.034636      0.007515     -0.013592
     10.16169      0.63527     18.51454        -0.006190      0.038345      0.075239
      7.18335      0.84859     18.74493        -0.008728      0.022820     -0.009911
      2.33177      7.66382     18.75905         0.011542     -0.006570     -0.003929
      8.53031      3.28193     18.37529         0.045470      0.017834      0.028666
      6.82199      5.48457     18.59255         0.054812      0.041697      0.003075
     11.65417      5.02899     19.00019        -0.013914      0.042974      0.049031
     12.10483      8.37731     18.32192         0.053496      0.062419      0.106556
      8.44436      7.73199     18.70337         0.113295      0.056269     -0.041607
      9.95506      6.12954     17.60795         0.041293      0.036680     -0.085548
      3.74615      7.11231     16.41719        -0.004810     -0.006236     -0.006986
     13.44465      2.57593     16.46498        -0.101482     -0.047049      0.048855
      1.69705      5.90705     15.18407        -0.013955     -0.023867      0.009899
     11.73007      0.35654     16.12837        -0.105739     -0.265942      0.052199
      3.40832      3.48530     14.99348        -0.035226     -0.003309      0.006468
      6.76279      7.17462     16.49040         0.049968      0.028809      0.001722
      8.20505      4.96317     16.29980         0.005169      0.029690      0.005436
      5.31803      4.95335     16.39309         0.026591     -0.000807     -0.006692
     13.60183      7.96059     15.76110         0.073234      0.103016     -0.108718
     10.14447      2.60754     16.41984         0.337755     -0.204179      0.240018
 -----------------------------------------------------------------------------------
    total drift:                               -0.006299      0.000945      0.001221


--------------------------------------------------------------------------------------------------------



  FREE ENERGIE OF THE ION-ELECTRON SYSTEM (eV)
  ---------------------------------------------------
  free  energy   TOTEN  =      -748.25221024 eV

  energy  without entropy=     -748.24439410  energy(sigma->0) =     -748.25025621
 


--------------------------------------------------------------------------------------------------------


    POTLOK:  cpu time    0.1135: real time    0.1147


--------------------------------------------------------------------------------------------------------


     LOOP+:  cpu time  941.0737: real time  941.7451
    4ORBIT:  cpu time    0.0000: real time    0.0000

 total amount of memory used by VASP on root node   142340. kBytes
========================================================================

   base      :      30000. kBytes
   nonl-proj :      29145. kBytes
   fftplans  :       6516. kBytes
   grid      :      15878. kBytes
   one-center:         62. kBytes
   wavefun   :      60739. kBytes
 
  
  
 General timing and accounting informations for this job:
 ========================================================
  
                  Total CPU time used (sec):      961.146
                            User time (sec):      957.131
                          System time (sec):        4.015
                         Elapsed time (sec):      962.080
  
                   Maximum memory used (kb):      179288.
                   Average memory used (kb):           0.
  
                          Minor page faults:        54346
                          Major page faults:            0
                 Voluntary context switches:         2626
