 vasp.5.4.1 05Feb16 (build Mar 19 2020 08:54:17) complex                        
  
 executed on           IFC91_ompi date 2021.10.23  14:56:03
 running on   96 total cores
 distrk:  each k-point on   96 cores,    1 groups
 distr:  one band on NCORES_PER_BAND=  48 cores,    2 groups


--------------------------------------------------------------------------------------------------------


 INCAR:
 POTCAR:    PAW_PBE Al 04Jan2001                  
 POTCAR:    PAW_PBE Nb_sv 25May2007               
 POTCAR:    PAW_PBE Ta 17Jan2003                  
 POTCAR:    PAW_PBE Ti 08Apr2002                  
 POTCAR:   PAW_PBE Zr 08Apr2002                   
 POTCAR:    PAW_PBE O 08Apr2002                   

 ----------------------------------------------------------------------------- 
|                                                                             |
|           W    W    AA    RRRRR   N    N  II  N    N   GGGG   !!!           |
|           W    W   A  A   R    R  NN   N  II  NN   N  G    G  !!!           |
|           W    W  A    A  R    R  N N  N  II  N N  N  G       !!!           |
|           W WW W  AAAAAA  RRRRR   N  N N  II  N  N N  G  GGG   !            |
|           WW  WW  A    A  R   R   N   NN  II  N   NN  G    G                |
|           W    W  A    A  R    R  N    N  II  N    N   GGGG   !!!           |
|                                                                             |
|      For optimal performance we recommend to set                            |
|        NCORE= 4 - approx SQRT( number of cores)                             |
|      NCORE specifies how many cores store one orbital (NPAR=cpu/NCORE).     |
|      This setting can  greatly improve the performance of VASP for DFT.     |
|      The default, NPAR=number of cores might be grossly inefficient         |
|      on modern multi-core architectures or massively parallel machines.     |
|      Do your own testing !!!!                                               |
|      Unfortunately you need to use the default for GW and RPA calculations. |
|      (for HF NCORE is supported but not extensively tested yet)             |
|                                                                             |
 ----------------------------------------------------------------------------- 

 POTCAR:    PAW_PBE Al 04Jan2001                  
   VRHFIN =Al: s2p1                                                             
   LEXCH  = PE                                                                  
   EATOM  =    53.5387 eV,    3.9350 Ry                                         
                                                                                
   TITEL  = PAW_PBE Al 04Jan2001                                                
   LULTRA =        F    use ultrasoft PP ?                                      
   IUNSCR =        1    unscreen: 0-lin 1-nonlin 2-no                           
   RPACOR =    1.500    partial core radius                                     
   POMASS =   26.981; ZVAL   =    3.000    mass and valenz                      
   RCORE  =    1.900    outmost cutoff radius                                   
   RWIGS  =    2.650; RWIGS  =    1.402    wigner-seitz radius (au A)           
   ENMAX  =  240.300; ENMIN  =  180.225 eV                                      
   ICORE  =        2    local potential                                         
   LCOR   =        T    correct aug charges                                     
   LPAW   =        T    paw PP                                                  
   EAUG   =  291.052                                                            
   DEXC   =    0.000                                                            
   RMAX   =    1.939    core radius for proj-oper                               
   RAUG   =    1.300    factor for augmentation sphere                          
   RDEP   =    1.966    radius for radial grids                                 
   RDEPT  =    1.856    core radius for aug-charge                              
                                                                                
   Atomic configuration                                                         
    6 entries                                                                   
     n  l   j            E        occ.                                          
     1  0  0.50     -1511.1048   2.0000                                         
     2  0  0.50      -108.1629   2.0000                                         
     2  1  1.50       -69.6402   6.0000                                         
     3  0  0.50        -7.7528   2.0000                                         
     3  1  1.50        -2.7121   1.0000                                         
     3  2  2.50        -2.7212   0.0000                                         
   Description                                                                  
     l       E           TYP  RCUT    TYP  RCUT                                 
     0     -7.7528455     23  1.900                                             
     0     -3.3096929     23  1.900                                             
     1     -2.7120682     23  1.900                                             
     1     13.6058260     23  1.900                                             
     2     -2.7211652      7  1.900                                             
  local pseudopotential read in
  partial core-charges read in
  partial kinetic energy density read in
  atomic valenz-charges read in
  non local Contribution for L=           0  read in
    real space projection operators read in
  non local Contribution for L=           0  read in
    real space projection operators read in
  non local Contribution for L=           1  read in
    real space projection operators read in
  non local Contribution for L=           1  read in
    real space projection operators read in
    PAW grid and wavefunctions read in
 
   number of l-projection  operators is LMAX  =           4
   number of lm-projection operators is LMMAX =           8
 
 POTCAR:    PAW_PBE Nb_sv 25May2007               
   VRHFIN =Nb: 4p5s4d                                                           
   LEXCH  = PE                                                                  
   EATOM  =  1555.1913 eV,  114.3033 Ry                                         
                                                                                
   TITEL  = PAW_PBE Nb_sv 25May2007                                             
   LULTRA =        F    use ultrasoft PP ?                                      
   IUNSCR =        1    unscreen: 0-lin 1-nonlin 2-no                           
   RPACOR =    1.800    partial core radius                                     
   POMASS =   92.910; ZVAL   =   13.000    mass and valenz                      
   RCORE  =    2.400    outmost cutoff radius                                   
   RWIGS  =    2.400; RWIGS  =    1.270    wigner-seitz radius (au A)           
   ENMAX  =  293.235; ENMIN  =  219.927 eV                                      
   ICORE  =        3    local potential                                         
   LCOR   =        T    correct aug charges                                     
   LPAW   =        T    paw PP                                                  
   EAUG   =  455.659                                                            
   DEXC   =    0.000                                                            
   RMAX   =    2.456    core radius for proj-oper                               
   RAUG   =    1.300    factor for augmentation sphere                          
   RDEP   =    2.451    radius for radial grids                                 
   RDEPT  =    1.956    core radius for aug-charge                              
                                                                                
   Atomic configuration                                                         
   11 entries                                                                   
     n  l   j            E        occ.                                          
     1  0  0.50    -18805.2457   2.0000                                         
     2  0  0.50     -2630.2869   2.0000                                         
     2  1  1.50     -2348.4046   6.0000                                         
     3  0  0.50      -438.8757   2.0000                                         
     3  1  1.50      -346.7588   6.0000                                         
     3  2  2.50      -196.2560  10.0000                                         
     4  0  0.50       -58.3859   2.0000                                         
     5  0  0.50        -3.9816   1.0000                                         
     4  1  1.50       -34.5141   6.0000                                         
     4  2  2.50        -3.0408   4.0000                                         
     4  3  2.50        -1.3606   0.0000                                         
   Description                                                                  
     l       E           TYP  RCUT    TYP  RCUT                                 
     0    -58.3859094     23  2.200                                             
     0     -3.9816262     23  2.200                                             
     1    -34.5140738     23  2.200                                             
     1     13.6058260     23  2.200                                             
     2     -3.0408010     23  2.200                                             
     2     -0.1283038     23  2.200                                             
     3     -1.3605826     23  2.400                                             
  local pseudopotential read in
  partial core-charges read in
  partial kinetic energy density read in
  atomic valenz-charges read in
  non local Contribution for L=           0  read in
    real space projection operators read in
  non local Contribution for L=           0  read in
    real space projection operators read in
  non local Contribution for L=           1  read in
    real space projection operators read in
  non local Contribution for L=           1  read in
    real space projection operators read in
  non local Contribution for L=           2  read in
    real space projection operators read in
  non local Contribution for L=           2  read in
    real space projection operators read in
    PAW grid and wavefunctions read in
 
   number of l-projection  operators is LMAX  =           6
   number of lm-projection operators is LMMAX =          18
 
 POTCAR:    PAW_PBE Ta 17Jan2003                  
   VRHFIN =Ta:  6s5d                                                            
   LEXCH  = PE                                                                  
   EATOM  =   130.6506 eV,    9.6025 Ry                                         
                                                                                
   TITEL  = PAW_PBE Ta 17Jan2003                                                
   LULTRA =        F    use ultrasoft PP ?                                      
   IUNSCR =        1    unscreen: 0-lin 1-nonlin 2-no                           
   RPACOR =    2.330    partial core radius                                     
   POMASS =  180.948; ZVAL   =    5.000    mass and valenz                      
   RCORE  =    2.900    outmost cutoff radius                                   
   RWIGS  =    2.840; RWIGS  =    1.503    wigner-seitz radius (au A)           
   ENMAX  =  223.667; ENMIN  =  167.750 eV                                      
   RCLOC  =    2.205    cutoff for local pot                                    
   LCOR   =        T    correct aug charges                                     
   LPAW   =        T    paw PP                                                  
   EAUG   =  332.075                                                            
   DEXC   =    0.000                                                            
   RMAX   =    2.970    core radius for proj-oper                               
   RAUG   =    1.300    factor for augmentation sphere                          
   RDEP   =    3.060    radius for radial grids                                 
   RDEPT  =    2.354    core radius for aug-charge                              
                                                                                
   Atomic configuration                                                         
   16 entries                                                                   
     n  l   j            E        occ.                                          
     1  0  0.50    -67341.2807   2.0000                                         
     2  0  0.50    -11566.9376   2.0000                                         
     2  1  1.50    -10134.1182   6.0000                                         
     3  0  0.50     -2648.5620   2.0000                                         
     3  1  1.50     -2222.6012   6.0000                                         
     3  2  2.50     -1726.3120  10.0000                                         
     4  0  0.50      -538.6961   2.0000                                         
     4  1  1.50      -399.0129   6.0000                                         
     4  2  2.50      -220.3959  10.0000                                         
     4  3  3.50       -23.0374  14.0000                                         
     5  0  0.50       -71.2901   2.0000                                         
     5  1  1.50       -37.8225   6.0000                                         
     5  2  2.50        -2.6455   4.0000                                         
     6  0  0.50        -4.9623   1.0000                                         
     6  1  1.50        -1.3606   0.0000                                         
     5  3  2.50        -1.3606   0.0000                                         
   Description                                                                  
     l       E           TYP  RCUT    TYP  RCUT                                 
     2     -2.6455043     23  2.500                                             
     2     -0.6258895     23  2.500                                             
     0     -4.9622780     23  2.500                                             
     0      4.7531321     23  2.500                                             
     1     -1.3605826     23  2.900                                             
     1     27.2116520     23  2.900                                             
  local pseudopotential read in
  partial core-charges read in
  partial kinetic energy density read in
  atomic valenz-charges read in
  non local Contribution for L=           2  read in
    real space projection operators read in
  non local Contribution for L=           2  read in
    real space projection operators read in
  non local Contribution for L=           0  read in
    real space projection operators read in
  non local Contribution for L=           0  read in
    real space projection operators read in
  non local Contribution for L=           1  read in
    real space projection operators read in
  non local Contribution for L=           1  read in
    real space projection operators read in
    PAW grid and wavefunctions read in
 
   number of l-projection  operators is LMAX  =           6
   number of lm-projection operators is LMMAX =          18
 
 POTCAR:    PAW_PBE Ti 08Apr2002                  
   VRHFIN =Ti: d3 s1                                                            
   LEXCH  = PE                                                                  
   EATOM  =    94.7928 eV,    6.9671 Ry                                         
                                                                                
   TITEL  = PAW_PBE Ti 08Apr2002                                                
   LULTRA =        F    use ultrasoft PP ?                                      
   IUNSCR =        1    unscreen: 0-lin 1-nonlin 2-no                           
   RPACOR =    2.200    partial core radius                                     
   POMASS =   47.880; ZVAL   =    4.000    mass and valenz                      
   RCORE  =    2.800    outmost cutoff radius                                   
   RWIGS  =    2.500; RWIGS  =    1.323    wigner-seitz radius (au A)           
   ENMAX  =  178.330; ENMIN  =  133.747 eV                                      
   RCLOC  =    2.215    cutoff for local pot                                    
   LCOR   =        T    correct aug charges                                     
   LPAW   =        T    paw PP                                                  
   EAUG   =  328.883                                                            
   DEXC   =    0.000                                                            
   RMAX   =    2.868    core radius for proj-oper                               
   RAUG   =    1.300    factor for augmentation sphere                          
   RDEP   =    2.885    radius for radial grids                                 
   RDEPT  =    2.320    core radius for aug-charge                              
                                                                                
   Atomic configuration                                                         
    9 entries                                                                   
     n  l   j            E        occ.                                          
     1  0  0.50     -4865.3608   2.0000                                         
     2  0  0.50      -533.1367   2.0000                                         
     2  1  1.50      -440.5031   6.0000                                         
     3  0  0.50       -59.3186   2.0000                                         
     3  1  1.50       -35.7012   6.0000                                         
     3  2  2.50        -1.9157   3.0000                                         
     4  0  0.50        -3.7291   1.0000                                         
     4  1  1.50        -4.0817   0.0000                                         
     4  3  2.50        -1.3606   0.0000                                         
   Description                                                                  
     l       E           TYP  RCUT    TYP  RCUT                                 
     2     -1.9156924     23  2.800                                             
     2     -0.4062961     23  2.800                                             
     0     -3.7290832     23  2.800                                             
     0     20.4087390     23  2.800                                             
     1     -5.4423304     23  2.800                                             
  local pseudopotential read in
  partial core-charges read in
  partial kinetic energy density read in
  atomic valenz-charges read in
  non local Contribution for L=           2  read in
    real space projection operators read in
  non local Contribution for L=           2  read in
    real space projection operators read in
  non local Contribution for L=           0  read in
    real space projection operators read in
  non local Contribution for L=           0  read in
    real space projection operators read in
  non local Contribution for L=           1  read in
    real space projection operators read in
    PAW grid and wavefunctions read in
 
   number of l-projection  operators is LMAX  =           5
   number of lm-projection operators is LMMAX =          15
 
 POTCAR:   PAW_PBE Zr 08Apr2002                   
   VRHFIN =Zr: 5s4d5p                                                           
   LEXCH  = PE                                                                  
   EATOM  =    77.8472 eV,    5.7216 Ry                                         
                                                                                
   TITEL  = PAW_PBE Zr 08Apr2002                                                
   LULTRA =        F    use ultrasoft PP ?                                      
   IUNSCR =        1    unscreen: 0-lin 1-nonlin 2-no                           
   RPACOR =    2.200    partial core radius                                     
   POMASS =   91.224; ZVAL   =    4.000    mass and valenz                      
   RCORE  =    3.000    outmost cutoff radius                                   
   RWIGS  =    3.070; RWIGS  =    1.625    wigner-seitz radius (au A)           
   ENMAX  =  154.632; ENMIN  =  115.974 eV                                      
   RCLOC  =    2.213    cutoff for local pot                                    
   LCOR   =        T    correct aug charges                                     
   LPAW   =        T    paw PP                                                  
   EAUG   =  243.217                                                            
   DEXC   =    -.082                                                            
   RMAX   =    3.708    core radius for proj-oper                               
   RAUG   =    1.300    factor for augmentation sphere                          
   RDEP   =    3.146    radius for radial grids                                 
   QCUT   =   -3.371; QGAM   =    6.742    optimization parameters              
                                                                                
   Description                                                                  
     l     E      TYP  RCUT    TYP  RCUT                                        
     2   .000     23  3.000                                                     
     2   .000     23  3.000                                                     
     0   .000     23  3.000                                                     
     0  2.000     23  3.000                                                     
     1  -.400     23  3.000                                                     
     3   .000      7   .000                                                     
  local pseudopotential read in
  partial core-charges read in
  atomic valenz-charges read in
  non local Contribution for L=           2  read in
    real space projection operators read in
  non local Contribution for L=           2  read in
    real space projection operators read in
  non local Contribution for L=           0  read in
    real space projection operators read in
  non local Contribution for L=           0  read in
    real space projection operators read in
  non local Contribution for L=           1  read in
    real space projection operators read in
    PAW grid and wavefunctions read in
 
   number of l-projection  operators is LMAX  =           5
   number of lm-projection operators is LMMAX =          15
 
 POTCAR:    PAW_PBE O 08Apr2002                   
   VRHFIN =O: s2p4                                                              
   LEXCH  = PE                                                                  
   EATOM  =   432.3788 eV,   31.7789 Ry                                         
                                                                                
   TITEL  = PAW_PBE O 08Apr2002                                                 
   LULTRA =        F    use ultrasoft PP ?                                      
   IUNSCR =        1    unscreen: 0-lin 1-nonlin 2-no                           
   RPACOR =    1.200    partial core radius                                     
   POMASS =   16.000; ZVAL   =    6.000    mass and valenz                      
   RCORE  =    1.520    outmost cutoff radius                                   
   RWIGS  =    1.550; RWIGS  =    0.820    wigner-seitz radius (au A)           
   ENMAX  =  400.000; ENMIN  =  300.000 eV                                      
   ICORE  =        2    local potential                                         
   LCOR   =        T    correct aug charges                                     
   LPAW   =        T    paw PP                                                  
   EAUG   =  605.392                                                            
   DEXC   =    0.000                                                            
   RMAX   =    1.553    core radius for proj-oper                               
   RAUG   =    1.300    factor for augmentation sphere                          
   RDEP   =    1.550    radius for radial grids                                 
   RDEPT  =    1.329    core radius for aug-charge                              
                                                                                
   Atomic configuration                                                         
    4 entries                                                                   
     n  l   j            E        occ.                                          
     1  0  0.50      -514.6923   2.0000                                         
     2  0  0.50       -23.9615   2.0000                                         
     2  1  0.50        -9.0305   4.0000                                         
     3  2  1.50        -9.5241   0.0000                                         
   Description                                                                  
     l       E           TYP  RCUT    TYP  RCUT                                 
     0    -23.9615318     23  1.200                                             
     0     -9.5240782     23  1.200                                             
     1     -9.0304911     23  1.520                                             
     1      8.1634956     23  1.520                                             
     2     -9.5240782      7  1.500                                             
  local pseudopotential read in
  partial core-charges read in
  partial kinetic energy density read in
  kinetic energy density of atom read in
  atomic valenz-charges read in
  non local Contribution for L=           0  read in
    real space projection operators read in
  non local Contribution for L=           0  read in
    real space projection operators read in
  non local Contribution for L=           1  read in
    real space projection operators read in
  non local Contribution for L=           1  read in
    real space projection operators read in
    PAW grid and wavefunctions read in
 
   number of l-projection  operators is LMAX  =           4
   number of lm-projection operators is LMMAX =           8
 

 ----------------------------------------------------------------------------- 
|                                                                             |
|  ADVICE TO THIS USER RUNNING 'VASP/VAMP'   (HEAR YOUR MASTER'S VOICE ...):  |
|                                                                             |
|      You have a (more or less) 'large supercell' and for larger cells       |
|      it might be more efficient to use real space projection opertators     |
|      So try LREAL= Auto  in the INCAR   file.                               |
|      Mind: At the moment your POTCAR file does not contain real space       |
|       projectors, and has to be modified,  BUT if you                       |
|      want to do an extremely  accurate calculation you might also keep the  |
|      reciprocal projection scheme          (i.e. LREAL=.FALSE.)             |
|                                                                             |
 ----------------------------------------------------------------------------- 

 WARNING: PSMAXN for non-local potential too small
          PSMAXN should be >   12.5490833729506       NTYP=           5
  PAW_PBE Al 04Jan2001                  :
 energy of atom  1       EATOM=  -53.5387
 kinetic energy error for atom=    0.0002 (will be added to EATOM!!)
  PAW_PBE Nb_sv 25May2007               :
 energy of atom  2       EATOM=-1555.1913
 kinetic energy error for atom=    0.0037 (will be added to EATOM!!)
  PAW_PBE Ta 17Jan2003                  :
 energy of atom  3       EATOM= -130.6506
 kinetic energy error for atom=    0.0004 (will be added to EATOM!!)
  PAW_PBE Ti 08Apr2002                  :
 energy of atom  4       EATOM=  -94.7928
 kinetic energy error for atom=    0.0001 (will be added to EATOM!!)
 PAW_PBE Zr 08Apr2002                   :
 energy of atom  5       EATOM=  -77.8472
 kinetic energy error for atom=    0.0001 (will be added to EATOM!!)
  PAW_PBE O 08Apr2002                   :
 energy of atom  6       EATOM= -432.3788
 kinetic energy error for atom=    0.0168 (will be added to EATOM!!)
 
 
 POSCAR: Al Nb Ta Ti Zr                          
  positions in direct lattice
  velocities in cartesian coordinates
 exchange correlation table for  LEXCH =        8
   RHO(1)=    0.500       N(1)  =     2000
   RHO(2)=  100.500       N(2)  =     4000
 


--------------------------------------------------------------------------------------------------------


 ion  position               nearest neighbor table
   1  0.623  0.867  0.376-  34 2.83  25 2.88  24 2.88   9 2.88  13 2.90   4 2.91  61 2.93  15 3.16
                            41 3.35  17 3.40
   2  0.621  0.392  0.547-  31 2.79  23 2.80  14 2.80  26 2.81  33 2.81  10 2.90   7 2.91  62 2.98
                            18 3.09  16 3.14  17 3.19   3 3.20  42 3.34
   3  0.617  0.638  0.625-  32 2.79  23 2.87  33 2.88  14 2.90   8 2.93  26 2.99  27 2.99  45 3.20
                             2 3.20
   4  0.618  0.084  0.450-  31 2.80  24 2.86  34 2.87  13 2.88   1 2.91  25 2.92   7 2.92  10 2.93
                            62 2.97  28 3.16  12 3.17  46 3.24
   5  0.977  0.636  0.554-  27 2.76  30 2.79  42 2.92  56 2.94  59 2.99  52 3.01  63 3.06  54 3.06
                            58 3.13  47 3.14  57 3.36
   6  0.980  0.121  0.378-  29 2.80  28 2.80  53 2.91  41 2.96  51 3.05  55 3.05  60 3.08  57 3.37

   7  0.729  0.343  0.458-  28 2.77  29 2.83  31 2.85  17 2.89  11 2.90   2 2.91   4 2.92  62 3.02
                            42 3.06  63 3.07
   8  0.726  0.902  0.622-  30 2.62  12 2.73  32 2.77  18 2.78  27 2.89   3 2.93  64 2.97  62 3.17

   9  0.517  0.608  0.367-  35 2.84  15 2.85  17 2.87   1 2.88  11 2.89  61 2.95  43 3.10
  10  0.514  0.132  0.540-  18 2.73  36 2.79  16 2.81  12 2.87   2 2.90   4 2.93  46 2.95  31 2.96
                            62 3.06  44 3.12
  11  0.618  0.343  0.369-  24 2.75  34 2.83  31 2.87   9 2.89   7 2.90  61 2.96  43 3.27
  12  0.620  0.874  0.539-  13 2.72   8 2.73  32 2.74  23 2.80  25 2.84  10 2.87  33 2.90  62 2.91
                             4 3.17  44 3.37
  13  0.742  0.843  0.462-  12 2.72  17 2.87   4 2.88   1 2.90  30 2.91  28 2.94  23 2.95  63 2.98
                            41 3.05  57 3.27  62 3.45
  14  0.743  0.394  0.629-  27 2.71   2 2.80  18 2.84  42 2.85  64 2.88   3 2.90  58 3.10
  15  0.394  0.847  0.369-  22 2.68  19 2.76  25 2.83  34 2.84   9 2.85  39 2.98   1 3.16  46 3.43

  16  0.393  0.370  0.542-  20 2.64  21 2.66  26 2.73  10 2.81  33 2.85  31 2.88  37 2.89  40 3.07
                             2 3.14
  17  0.619  0.602  0.458-  23 2.80  25 2.81  33 2.83  31 2.85   9 2.87  13 2.87   7 2.89  61 2.95
                            35 3.03   2 3.19   1 3.40  63 3.44
  18  0.623  0.152  0.622-  10 2.73   8 2.78  32 2.79  62 2.80  26 2.80  14 2.84   2 3.09  36 3.23
                            64 3.26
  19  0.279  0.834  0.451-  15 2.76  35 2.94  46 2.96  39 2.97  25 2.99  44 3.01  60 3.07  51 3.08
                            47 3.12  56 3.20  21 3.38
  20  0.283  0.383  0.620-  16 2.64  36 2.89  26 2.92  45 2.94  21 2.99  59 3.03  48 3.04  52 3.04
                            40 3.17
  21  0.280  0.594  0.541-  16 2.66  45 2.91  59 2.93  52 2.97  35 2.98  44 2.98  20 2.99  33 3.03
                            37 3.06  47 3.08  56 3.12  19 3.38
  22  0.283  0.077  0.361-  15 2.68  46 2.97  43 2.97  34 2.99  51 3.02  55 3.10  60 3.10
  23  0.736  0.633  0.540-  27 2.70  30 2.76   2 2.80  17 2.80  12 2.80   3 2.87  63 2.94  13 2.95
                            42 3.00
  24  0.740  0.115  0.366-  29 2.73  11 2.75  28 2.85   4 2.86   1 2.88  41 3.00
  25  0.496  0.836  0.458-  35 2.78  17 2.81  15 2.83  12 2.84   1 2.88   4 2.92  19 2.99  46 2.99
                            44 2.99  33 3.03
  26  0.495  0.380  0.627-  16 2.73  18 2.80   2 2.81  36 2.85  20 2.92   3 2.99  45 3.01
  27  0.835  0.644  0.624-  23 2.70  14 2.71   5 2.76  58 2.77   8 2.89  30 2.93   3 2.99  54 3.19
                            42 3.37
  28  0.847  0.110  0.455-   7 2.77  62 2.78   6 2.80  24 2.85  57 2.90  13 2.94  53 2.98  29 3.15
                             4 3.16  50 3.26  41 3.36
  29  0.852  0.349  0.376-  24 2.73   6 2.80   7 2.83  53 2.94  61 2.98  49 3.07  28 3.15  63 3.25

  30  0.852  0.866  0.552-   8 2.62  23 2.76   5 2.79  54 2.89  13 2.91  27 2.93  57 2.97  62 3.00
                            50 3.07  64 3.49
  31  0.522  0.339  0.461-   2 2.79   4 2.80  17 2.85   7 2.85  35 2.86  11 2.87  16 2.88  46 2.95
                            10 2.96  43 3.11
  32  0.524  0.898  0.625-  65 2.01  12 2.74   8 2.77  18 2.79   3 2.79  36 2.85  44 2.97  45 3.03

  33  0.499  0.627  0.540-   2 2.81  17 2.83  35 2.84  16 2.85   3 2.88  12 2.90  44 2.91  45 2.94
                            25 3.03  21 3.03
  34  0.499  0.102  0.365-  11 2.83   1 2.83  15 2.84   4 2.87  43 2.91  46 2.98  22 2.99
  35  0.400  0.580  0.451-  25 2.78  33 2.84   9 2.84  31 2.86  37 2.88  39 2.93  19 2.94  21 2.98
                            17 3.03  43 3.08
  36  0.390  0.124  0.620-  65 2.18  10 2.79  40 2.84  32 2.85  26 2.85  20 2.89  38 2.94  44 3.13
                            18 3.23
  37  0.255  0.366  0.464-  35 2.88  16 2.89  47 3.02  60 3.04  52 3.04  43 3.05  21 3.06  55 3.08
                            46 3.08  40 3.22  39 3.39
  38  0.234  0.915  0.626-  65 2.03  56 2.82  36 2.94  44 2.95  59 2.98  40 3.00  48 3.09  54 3.24
                            45 3.27
  39  0.252  0.614  0.376-  35 2.93  19 2.97  15 2.98  47 3.07  43 3.07  51 3.07  55 3.08  37 3.39
                            49 3.53
  40  0.243  0.134  0.548-  36 2.84  38 3.00  60 3.03  48 3.04  52 3.05  16 3.07  44 3.09  20 3.17
                            56 3.18  37 3.22  46 3.22  50 3.43
  41  0.865  0.859  0.370-   6 2.96  24 3.00  61 3.05  13 3.05  57 3.06  49 3.12   1 3.35  28 3.36
                            51 3.49  63 3.53
  42  0.863  0.379  0.545-  14 2.85   5 2.92  62 2.97  23 3.00  58 3.03   7 3.06  50 3.13  63 3.15
                            53 3.20  64 3.30   2 3.34  27 3.37  52 3.48
  43  0.381  0.352  0.373-  34 2.91  22 2.97  37 3.05  39 3.07  35 3.08   9 3.10  31 3.11  55 3.26
                            11 3.27  46 3.29
  44  0.376  0.873  0.547-  65 2.43  33 2.91  38 2.95  32 2.97  21 2.98  25 2.99  19 3.01  40 3.09
                            45 3.11  10 3.12  36 3.13  46 3.36  12 3.37  56 3.37
  45  0.385  0.652  0.630-  65 2.37  21 2.91  33 2.94  20 2.94  26 3.01  32 3.03  44 3.11   3 3.20
                            38 3.27  59 3.32
  46  0.384  0.104  0.456-  31 2.95  10 2.95  19 2.96  22 2.97  34 2.98  25 2.99  37 3.08  40 3.22
                             4 3.24  60 3.27  43 3.29  44 3.36  15 3.43
  47  0.117  0.611  0.465-  37 3.02  56 3.06  39 3.07  21 3.08  19 3.12  52 3.12   5 3.14  53 3.14
                            49 3.15  57 3.17  63 3.42  51 3.52  55 3.80
  48  0.113  0.185  0.635-  50 3.01  40 3.04  20 3.04  38 3.09  58 3.10  52 3.11  54 3.34  64 3.52

  49  0.996  0.593  0.368-  63 3.05  29 3.07  41 3.12  47 3.15  51 3.16  55 3.23  53 3.44  39 3.53
                            61 3.65  57 3.82
  50  0.994  0.112  0.547-  48 3.01  64 3.04  30 3.07  54 3.13  42 3.13  52 3.18  57 3.20  56 3.21
                            28 3.26  53 3.34  60 3.40  40 3.43  62 3.57
  51  0.119  0.872  0.375-  60 3.00  22 3.02   6 3.05  39 3.07  19 3.08  57 3.16  49 3.16  41 3.49
                            47 3.52
  52  0.116  0.394  0.549-  21 2.97   5 3.01  20 3.04  37 3.04  40 3.05  59 3.05  48 3.11  47 3.12
                            53 3.15  50 3.18  58 3.30  42 3.48
  53  1.000  0.331  0.453-   6 2.91  29 2.94  28 2.98  60 3.06  63 3.08  55 3.09  47 3.14  52 3.15
                            42 3.20  50 3.34  49 3.44
  54  0.000  0.877  0.626-  30 2.89  56 3.01   5 3.06  59 3.10  50 3.13  27 3.19  64 3.22  38 3.24
                            48 3.34
  55  0.145  0.332  0.368-   6 3.05  37 3.08  39 3.08  53 3.09  22 3.10  49 3.23  60 3.24  43 3.26
                            47 3.80
  56  0.133  0.843  0.540-  38 2.82   5 2.94  57 2.99  54 3.01  59 3.04  47 3.06  21 3.12  40 3.18
                            19 3.20  50 3.21  44 3.37  60 3.45
  57  0.979  0.876  0.465-  28 2.90  30 2.97  56 2.99  41 3.06  63 3.11  60 3.13  51 3.16  47 3.17
                            50 3.20  13 3.27   5 3.36   6 3.37  49 3.82
  58  0.965  0.429  0.641-  27 2.77  42 3.03  48 3.10  64 3.10  14 3.10   5 3.13  59 3.19  52 3.30

  59  0.146  0.630  0.622-  21 2.93  38 2.98   5 2.99  20 3.03  56 3.04  52 3.05  54 3.10  58 3.19
                            45 3.32
  60  0.147  0.092  0.451-  51 3.00  40 3.03  37 3.04  53 3.06  19 3.07   6 3.08  22 3.10  57 3.13
                            55 3.24  46 3.27  50 3.40  56 3.45
  61  0.731  0.606  0.367-   1 2.93  17 2.95   9 2.95  11 2.96  29 2.98  41 3.05  63 3.17  49 3.65

  62  0.736  0.129  0.538-  28 2.78  18 2.80  12 2.91   4 2.97  42 2.97   2 2.98  30 3.00   7 3.02
                            10 3.06  64 3.12   8 3.17  13 3.45  50 3.57
  63  0.869  0.592  0.458-  23 2.94  13 2.98  49 3.05   5 3.06   7 3.07  53 3.08  57 3.11  42 3.15
                            61 3.17  29 3.25  47 3.42  17 3.44  41 3.53
  64  0.859  0.145  0.633-  14 2.88   8 2.97  50 3.04  58 3.10  62 3.12  54 3.22  18 3.26  42 3.30
                            30 3.49  48 3.52
  65  0.380  0.900  0.635-  32 2.01  38 2.03  36 2.18  45 2.37  44 2.43
 
  LATTYP: Found a simple orthorhombic cell.
 ALAT       =     9.5644817352
 B/A-ratio  =     1.4398428730
 C/A-ratio  =     2.8922184390
  
  Lattice vectors:
  
 A1 = (   0.0000000000,  -9.5644817352,   0.0000000000)
 A2 = ( -13.7713508606,   0.0000000000,   0.0000000000)
 A3 = (   0.0000000000,   0.0000000000, -27.6625704340)


Analysis of symmetry for initial positions (statically):
=====================================================================
 Subroutine PRICEL returns:
 Original cell was already a primitive cell.
 

 Routine SETGRP: Setting up the symmetry group for a 
 simple orthorhombic supercell.


 Subroutine GETGRP returns: Found  1 space group operations
 (whereof  1 operations were pure point group operations)
 out of a pool of  8 trial point group operations.


The static configuration has the point symmetry C_1 .


Analysis of symmetry for dynamics (positions and initial velocities):
=====================================================================
 Subroutine PRICEL returns:
 Original cell was already a primitive cell.
 

 Routine SETGRP: Setting up the symmetry group for a 
 simple orthorhombic supercell.


 Subroutine GETGRP returns: Found  1 space group operations
 (whereof  1 operations were pure point group operations)
 out of a pool of  8 trial point group operations.


The dynamic configuration has the point symmetry C_1 .


Analysis of constrained symmetry for selective dynamics:
=====================================================================
 Subroutine PRICEL returns:
 Original cell was already a primitive cell.
 

 Routine SETGRP: Setting up the symmetry group for a 
 simple orthorhombic supercell.


 Subroutine GETGRP returns: Found  1 space group operations
 (whereof  1 operations were pure point group operations)
 out of a pool of  8 trial point group operations.


The constrained configuration has the point symmetry C_1 .


 Subroutine INISYM returns: Found  1 space group operations
 (whereof  1 operations are pure point group operations),
 and found     1 'primitive' translations

 
 
 KPOINTS: k-points                                

Automatic generation of k-mesh.
Space group operators:
 irot       det(A)        alpha          n_x          n_y          n_z        tau_x        tau_y        tau_z
    1     1.000000     0.000000     1.000000     0.000000     0.000000     0.000000     0.000000     0.000000
 
 Subroutine IBZKPT returns following result:
 ===========================================
 
 Found      5 irreducible k-points:
 
 Following reciprocal coordinates:
            Coordinates               Weight
  0.000000  0.000000  0.000000      1.000000
  0.333333  0.000000  0.000000      2.000000
  0.000000  0.333333  0.000000      2.000000
  0.333333  0.333333  0.000000      2.000000
 -0.333333  0.333333  0.000000      2.000000
 
 Following cartesian coordinates:
            Coordinates               Weight
  0.000000  0.000000  0.000000      1.000000
  0.024205  0.000000  0.000000      2.000000
  0.000000  0.034851  0.000000      2.000000
  0.024205  0.034851  0.000000      2.000000
 -0.024205  0.034851  0.000000      2.000000
 


--------------------------------------------------------------------------------------------------------




 Dimension of arrays:
   k-points           NKPTS =      5   k-points in BZ     NKDIM =      5   number of bands    NBANDS=    210
   number of dos      NEDOS =    301   number of ions     NIONS =     65
   non local maximal  LDIM  =      6   non local SUM 2l+1 LMDIM =     18
   total plane-waves  NPLWV = 846720
   max r-space proj   IRMAX =      1   max aug-charges    IRDMAX=  25433
   dimension x,y,z NGX =    84 NGY =   60 NGZ =  168
   dimension x,y,z NGXF=   168 NGYF=  120 NGZF=  336
   support grid    NGXF=   168 NGYF=  120 NGZF=  336
   ions per type =               6  10   4  18  26   1
 NGX,Y,Z   is equivalent  to a cutoff of  10.14, 10.43, 10.10 a.u.
 NGXF,Y,Z  is equivalent  to a cutoff of  20.28, 20.86, 20.19 a.u.


 I would recommend the setting:
   dimension x,y,z NGX =    83 NGY =   57 NGZ =  166
 SYSTEM =  (110) surface                           
 POSCAR =  Al Nb Ta Ti Zr                          

 Startparameter for this run:
   NWRITE =      2    write-flag & timer
   PREC   = normal    normal or accurate (medium, high low for compatibility)
   ISTART =      0    job   : 0-new  1-cont  2-samecut
   ICHARG =      2    charge: 1-file 2-atom 10-const
   ISPIN  =      1    spin polarized calculation?
   LNONCOLLINEAR =      F non collinear calculations
   LSORBIT =      F    spin-orbit coupling
   INIWAV =      1    electr: 0-lowe 1-rand  2-diag
   LASPH  =      F    aspherical Exc in radial PAW
   METAGGA=      F    non-selfconsistent MetaGGA calc.

 Electronic Relaxation 1
   ENCUT  =  600.0 eV  44.10 Ry    6.64 a.u.  27.50 19.10 55.25*2*pi/ulx,y,z
   ENINI  =  600.0     initial cutoff
   ENAUG  =  605.4 eV  augmentation charge cutoff
   NELM   =     60;   NELMIN=  2; NELMDL= -5     # of ELM steps 
   EDIFF  = 0.1E-03   stopping-criterion for ELM
   LREAL  =      F    real-space projection
   NLSPLINE    = F    spline interpolate recip. space projectors
   LCOMPAT=      F    compatible to vasp.4.4
   GGA_COMPAT  = T    GGA compatible to vasp.4.4-vasp.4.6
   LMAXPAW     = -100 max onsite density
   LMAXMIX     =    2 max onsite mixed and CHGCAR
   VOSKOWN=      0    Vosko Wilk Nusair interpolation
   ROPT   =    0.00000   0.00000   0.00000   0.00000
   ROPT   =    0.00000   0.00000
 Ionic relaxation
   EDIFFG = -.1E-01   stopping-criterion for IOM
   NSW    =    150    number of steps for IOM
   NBLOCK =      1;   KBLOCK =    150    inner block; outer block 
   IBRION =      2    ionic relax: 0-MD 1-quasi-New 2-CG
   NFREE  =      1    steps in history (QN), initial steepest desc. (CG)
   ISIF   =      2    stress and relaxation
   IWAVPR =     11    prediction:  0-non 1-charg 2-wave 3-comb
   ISYM   =      2    0-nonsym 1-usesym 2-fastsym
   LCORR  =      T    Harris-Foulkes like correction to forces

   POTIM  = 0.1000    time-step for ionic-motion
   TEIN   =    0.0    initial temperature
   TEBEG  =    0.0;   TEEND  =   0.0 temperature during run
   SMASS  =  -3.00    Nose mass-parameter (am)
   estimated Nose-frequenzy (Omega)   =  0.10E-29 period in steps =****** mass=  -0.433E-26a.u.
   SCALEE = 1.0000    scale energy and forces
   NPACO  =    256;   APACO  = 16.0  distance and # of slots for P.C.
   PSTRESS=    0.0 pullay stress

  Mass of Ions in am
   POMASS =  26.98 92.91180.95 47.88 91.22 16.00
  Ionic Valenz
   ZVAL   =   3.00 13.00  5.00  4.00  4.00  6.00
  Atomic Wigner-Seitz radii
   RWIGS  =  -1.00 -1.00 -1.00 -1.00 -1.00 -1.00
  virtual crystal weights 
   VCA    =   1.00  1.00  1.00  1.00  1.00  1.00
   NELECT =     350.0000    total number of electrons
   NUPDOWN=      -1.0000    fix difference up-down

 DOS related values:
   EMIN   =  10.00;   EMAX   =-10.00  energy-range for DOS
   EFERMI =   0.00
   ISMEAR =     2;   SIGMA  =   0.10  broadening in eV -4-tet -1-fermi 0-gaus

 Electronic relaxation 2 (details)
   IALGO  =     68    algorithm
   LDIAG  =      T    sub-space diagonalisation (order eigenvalues)
   LSUBROT=      F    optimize rotation matrix (better conditioning)
   TURBO    =      0    0=normal 1=particle mesh
   IRESTART =      0    0=no restart 2=restart with 2 vectors
   NREBOOT  =      0    no. of reboots
   NMIN     =      0    reboot dimension
   EREF     =   0.00    reference energy to select bands
   IMIX   =      4    mixing-type and parameters
     AMIX     =   0.40;   BMIX     =  1.00
     AMIX_MAG =   1.60;   BMIX_MAG =  1.00
     AMIN     =   0.10
     WC   =   100.;   INIMIX=   1;  MIXPRE=   1;  MAXMIX= -45

 Intra band minimization:
   WEIMIN = 0.0010     energy-eigenvalue tresh-hold
   EBREAK =  0.12E-06  absolut break condition
   DEPER  =   0.30     relativ break condition  

   TIME   =   0.40     timestep for ELM

  volume/ion in A,a.u.               =      56.06       378.28
  Fermi-wavevector in a.u.,A,eV,Ry     =   0.749757  1.416836  7.648324  0.562136
  Thomas-Fermi vector in A             =   1.846351
 
 Write flags
   LWAVE  =      F    write WAVECAR
   LCHARG =      F    write CHGCAR
   LVTOT  =      F    write LOCPOT, total local potential
   LVHAR  =      F    write LOCPOT, Hartree potential only
   LELF   =      F    write electronic localiz. function (ELF)
   LORBIT =      0    0 simple, 1 ext, 2 COOP (PROOUT)


 Dipole corrections
   LMONO  =      F    monopole corrections only (constant potential shift)
   LDIPOL =      F    correct potential (dipole corrections)
   IDIPOL =      0    1-x, 2-y, 3-z, 4-all directions 
   EPSILON=  1.0000000 bulk dielectric constant

 Exchange correlation treatment:
   GGA     =    --    GGA type
   LEXCH   =     8    internal setting for exchange type
   VOSKOWN=      0    Vosko Wilk Nusair interpolation
   LHFCALC =     F    Hartree Fock is set to
   LHFONE  =     F    Hartree Fock one center treatment
   AEXX    =    0.0000 exact exchange contribution

 Linear response parameters
   LEPSILON=     F    determine dielectric tensor
   LRPA    =     F    only Hartree local field effects (RPA)
   LNABLA  =     F    use nabla operator in PAW spheres
   LVEL    =     F    velocity operator in full k-point grid
   LINTERFAST=   F  fast interpolation
   KINTER  =     0    interpolate to denser k-point grid
   CSHIFT  =0.1000    complex shift for real part using Kramers Kronig
   OMEGAMAX=  -1.0    maximum frequency
   DEG_THRESHOLD= 0.2000000E-02 threshold for treating states as degnerate
   RTIME   =    0.100 relaxation time in fs

 Orbital magnetization related:
   ORBITALMAG=     F  switch on orbital magnetization
   LCHIMAG   =     F  perturbation theory with respect to B field
   DQ        =  0.001000  dq finite difference perturbation B field



--------------------------------------------------------------------------------------------------------


 conjugate gradient relaxation of ions
   using selective dynamics as specified on POSCAR
 charge density and potential will be updated during run
 non-spin polarized calculation
 RMM-DIIS sequential band-by-band and
  variant of blocked Davidson during initial phase
 perform sub-space diagonalisation
    before iterative eigenvector-optimisation
 modified Broyden-mixing scheme, WC =      100.0
 initial mixing is a Kerker type mixing with AMIX =  0.4000 and BMIX =      1.0000
 Hartree-type preconditioning will be used
 using additional bands           35
 reciprocal scheme for non local part
 use partial core corrections
 calculate Harris-corrections to forces 
   (improved forces if not selfconsistent)
 use gradient corrections 
 use of overlap-Matrix (Vanderbilt PP)
 Methfessel and Paxton  Order N= 2 SIGMA  =   0.10


--------------------------------------------------------------------------------------------------------


  energy-cutoff  :      600.00
  volume of cell :     3643.60
      direct lattice vectors                 reciprocal lattice vectors
    13.771350861  0.000000000  0.000000000     0.072614518  0.000000000  0.000000000
     0.000000000  9.564481735  0.000000000     0.000000000  0.104553496  0.000000000
     0.000000000  0.000000000 27.662570434     0.000000000  0.000000000  0.036149931

  length of vectors
    13.771350861  9.564481735 27.662570434     0.072614518  0.104553496  0.036149931


 
 k-points in units of 2pi/SCALE and weight: k-points                                
   0.00000000  0.00000000  0.00000000       0.111
   0.02420484  0.00000000  0.00000000       0.222
   0.00000000  0.03485117  0.00000000       0.222
   0.02420484  0.03485117  0.00000000       0.222
  -0.02420484  0.03485117  0.00000000       0.222
 
 k-points in reciprocal lattice and weights: k-points                                
   0.00000000  0.00000000  0.00000000       0.111
   0.33333333  0.00000000  0.00000000       0.222
   0.00000000  0.33333333  0.00000000       0.222
   0.33333333  0.33333333  0.00000000       0.222
  -0.33333333  0.33333333  0.00000000       0.222
 
 position of ions in fractional coordinates (direct lattice) 
   0.62276447  0.86746430  0.37590333
   0.62085056  0.39167369  0.54727468
   0.61739898  0.63834948  0.62549427
   0.61839700  0.08363760  0.44965952
   0.97653990  0.63640123  0.55377206
   0.97963780  0.12056648  0.37767599
   0.72857308  0.34338307  0.45816820
   0.72583027  0.90160508  0.62159911
   0.51739597  0.60805875  0.36719826
   0.51358223  0.13184178  0.54026904
   0.61811078  0.34297293  0.36889183
   0.62034406  0.87418068  0.53858796
   0.74231148  0.84345710  0.46199300
   0.74251773  0.39413482  0.62856250
   0.39405298  0.84738672  0.36896032
   0.39337255  0.36972509  0.54249641
   0.61928761  0.60162497  0.45752798
   0.62322313  0.15245723  0.62218245
   0.27944195  0.83362269  0.45088327
   0.28328113  0.38344667  0.62048871
   0.27985020  0.59435572  0.54056481
   0.28324246  0.07725573  0.36149931
   0.73574282  0.63266750  0.53996514
   0.74002355  0.11549973  0.36646499
   0.49591756  0.83582580  0.45790018
   0.49517983  0.37981342  0.62714133
   0.83468453  0.64362256  0.62407760
   0.84724605  0.11017048  0.45460239
   0.85243583  0.34907103  0.37639265
   0.85175294  0.86572880  0.55177912
   0.52175105  0.33942658  0.46105252
   0.52444123  0.89806433  0.62477630
   0.49886957  0.62650133  0.53991397
   0.49943882  0.10200214  0.36464270
   0.40016663  0.58028412  0.45130253
   0.38990654  0.12359190  0.62012204
   0.25505811  0.36595738  0.46399110
   0.23381875  0.91454679  0.62554117
   0.25182599  0.61397660  0.37627308
   0.24303407  0.13375597  0.54805869
   0.86539888  0.85904646  0.37036829
   0.86349108  0.37890117  0.54521039
   0.38059813  0.35186696  0.37331264
   0.37618269  0.87322106  0.54732020
   0.38549434  0.65233537  0.62959369
   0.38408008  0.10357511  0.45579618
   0.11657381  0.61110574  0.46457054
   0.11293820  0.18547012  0.63485290
   0.99629861  0.59295863  0.36811234
   0.99438686  0.11176183  0.54706632
   0.11869311  0.87196302  0.37467704
   0.11579683  0.39424497  0.54885827
   0.99977952  0.33051389  0.45306987
   0.00004532  0.87744631  0.62580738
   0.14482272  0.33176249  0.36788561
   0.13271260  0.84251663  0.54035166
   0.97888047  0.87608504  0.46520830
   0.96524705  0.42902416  0.64089362
   0.14558603  0.63012822  0.62171463
   0.14721048  0.09173214  0.45072276
   0.73135245  0.60578495  0.36679988
   0.73597485  0.12869252  0.53830182
   0.86923259  0.59196168  0.45825814
   0.85880102  0.14450219  0.63287824
   0.37966083  0.89963711  0.63483330
 
 position of ions in cartesian coordinates  (Angst):
   8.57630799  8.29684649 10.39845223
   8.54995096  3.74615587 15.13902448
   8.50241795  6.10548194 17.30277917
   8.51616202  0.79995025 12.43873821
  13.44827362  6.08684792 15.31875865
  13.49093588  1.15315590 10.44748880
  10.03343557  3.28428114 12.67411000
   9.99566337  8.62338536 17.19502908
   7.12524148  5.81576681 10.15764776
   7.07272106  1.26099827 14.94523042
   8.51222037  3.28035836 10.20449636
   8.54297567  8.36108518 14.89872732
  10.22263181  8.06723005 12.77991378
  10.22547218  3.76969533 17.38765455
   5.42664188  8.10481479 10.20639088
   5.41727135  3.53622887 15.00684510
   8.52842696  5.75423100 12.65640004
   8.58262437  1.45817439 17.21116575
   3.84829318  7.97316903 12.47259035
   3.90116390  3.66746868 17.16431252
   3.85391536  5.68470446 14.95341210
   3.90063135  0.73891098 10.00000000
  10.13217246  6.05113676 14.93682360
  10.19112400  1.10469510 10.13736353
   6.82945470  7.99424061 12.66669595
   6.81929519  3.63271848 17.34834135
  11.49473346  6.15591618 17.26359058
  11.66772263  1.05372358 12.57547056
  11.73919286  3.33868345 10.41198829
  11.72978855  8.28024733 15.26362870
   7.18521672  3.24643930 12.75389771
   7.22226414  8.58951988 17.28291850
   6.87010795  5.99216052 14.93540832
   6.87794726  0.97559764 10.08695433
   5.51083508  5.55011685 12.48418803
   5.36953976  1.18209245 17.15416961
   3.51249472  3.50019267 12.83518635
   3.21999998  8.74716603 17.30407658
   3.46798404  5.87236796 10.40868071
   3.34690739  1.27930656 15.16071225
  11.91771166  8.21633417 10.24533883
  11.89143858  3.62399329 15.08192095
   5.24135036  3.36542512 10.32678719
   5.18054376  8.35190683 15.14028350
   5.30877775  6.23924972 17.41617971
   5.28930157  0.99064225 12.60849381
   1.60537885  5.84490969 12.85121538
   1.55531161  1.77392562 17.56166301
  13.72037774  5.67134198 10.18293350
  13.69405036  1.06894394 15.13326047
   1.63456451  8.33987442 10.36453009
   1.59467871  3.77074880 15.18283044
  13.76831459  3.16119411 12.53307716
   0.00062408  8.39231918 17.31144068
   1.99440444  3.17313630 10.17666150
   1.82763178  8.05823495 14.94751589
  13.48050634  8.37929939 12.86885734
  13.29275579  4.10339376 17.72876502
   2.00491632  6.02684984 17.19822465
   2.02728715  0.87737042 12.46815015
  10.07171117  5.79401911 10.14662739
  10.13536782  1.23087721 14.89081200
  11.97050705  5.66180669 12.67659812
  11.82685018  1.38208852 17.50703879
   5.22844254  8.60456268 17.56112080
 


--------------------------------------------------------------------------------------------------------


 k-point  1 :   0.0000 0.0000 0.0000  plane waves:  121663
 k-point  2 :   0.3333 0.0000 0.0000  plane waves:  121577
 k-point  3 :   0.0000 0.3333 0.0000  plane waves:  121622
 k-point  4 :   0.3333 0.3333 0.0000  plane waves:  121647
 k-point  5 :  -0.3333 0.3333 0.0000  plane waves:  121647

 maximum and minimum number of plane-waves per node :      2568     2510

 maximum number of plane-waves:    121663
 maximum index in each direction: 
   IXMAX=   27   IYMAX=   19   IZMAX=   55
   IXMIN=  -27   IYMIN=  -19   IZMIN=  -55

 WARNING: aliasing errors must be expected set NGX to 110 to avoid them
 WARNING: aliasing errors must be expected set NGY to  78 to avoid them
 WARNING: aliasing errors must be expected set NGZ to 222 to avoid them
 aliasing errors are usually negligible using standard VASP settings
 and one can safely disregard these warnings

 parallel 3D FFT for wavefunctions:
    minimum data exchange during FFTs selected (reduces bandwidth)
 parallel 3D FFT for charge:
    minimum data exchange during FFTs selected (reduces bandwidth)


 total amount of memory used by VASP on root node    76428. kBytes
========================================================================

   base      :      30000. kBytes
   nonl-proj :      13592. kBytes
   fftplans  :       3278. kBytes
   grid      :       7939. kBytes
   one-center:         31. kBytes
   wavefun   :      21588. kBytes
 
     INWAV:  cpu time    0.0000: real time    0.0000
 Broyden mixing: mesh for mixing (old mesh)
   NGX = 55   NGY = 39   NGZ =111
  (NGX  =168   NGY  =120   NGZ  =336)
  gives a total of 238095 points

 initial charge density was supplied:
 charge density of overlapping atoms calculated
 number of electron     350.0000000 magnetization 
 keeping initial charge density in first step


--------------------------------------------------------------------------------------------------------


 Maximum index for augmentation-charges         1033 (set IRDMAX)


--------------------------------------------------------------------------------------------------------


 First call to EWALD:  gamma=   0.115
 Maximum number of real-space cells 3x 4x 2
 Maximum number of reciprocal cells 3x 2x 5

 FEWALD executed in parallel
    FEWALD:  cpu time    0.0024: real time    0.0023


----------------------------------------- Iteration    1(   1)  ---------------------------------------


    POTLOK:  cpu time    0.0577: real time    0.0582
    SETDIJ:  cpu time    0.0123: real time    0.0128
     EDDAV:  cpu time    8.4017: real time    8.4191
       DOS:  cpu time    0.0013: real time    0.0013
    --------------------------------------------
      LOOP:  cpu time    8.4757: real time    8.4981

 eigenvalue-minimisations  :  2220
 total energy-change (2. order) : 0.3909206E+04  (-0.1265981E+05)
 number of electron     350.0000000 magnetization 
 augmentation part      350.0000000 magnetization 

 Free energy of the ion-electron system (eV)
  ---------------------------------------------------
  alpha Z        PSCENC =       518.63607455
  Ewald energy   TEWEN  =     71941.23062861
  -Hartree energ DENC   =    -90379.37521899
  -exchange      EXHF   =         0.00000000
  -V(xc)+E(xc)   XCENC  =     -3060.67235707
  PAW double counting   =     19785.83060006   -15696.39549147
  entropy T*S    EENTRO =         0.00389923
  eigenvalues    EBANDS =       241.58375524
  atomic energy  EATOM  =     20558.36454164
  Solvation  Ediel_sol  =         0.00000000
  ---------------------------------------------------
  free energy    TOTEN  =      3909.20643181 eV

  energy without entropy =     3909.20253258  energy(sigma->0) =     3909.20545700


--------------------------------------------------------------------------------------------------------




----------------------------------------- Iteration    1(   2)  ---------------------------------------


     EDDAV:  cpu time    8.7872: real time    8.7924
       DOS:  cpu time    0.0013: real time    0.0013
    --------------------------------------------
      LOOP:  cpu time    8.7897: real time    8.7963

 eigenvalue-minimisations  :  2368
 total energy-change (2. order) :-0.3627443E+04  (-0.3522190E+04)
 number of electron     350.0000000 magnetization 
 augmentation part      350.0000000 magnetization 

 Free energy of the ion-electron system (eV)
  ---------------------------------------------------
  alpha Z        PSCENC =       518.63607455
  Ewald energy   TEWEN  =     71941.23062861
  -Hartree energ DENC   =    -90379.37521899
  -exchange      EXHF   =         0.00000000
  -V(xc)+E(xc)   XCENC  =     -3060.67235707
  PAW double counting   =     19785.83060006   -15696.39549147
  entropy T*S    EENTRO =         0.00817383
  eigenvalues    EBANDS =     -3385.86364490
  atomic energy  EATOM  =     20558.36454164
  Solvation  Ediel_sol  =         0.00000000
  ---------------------------------------------------
  free energy    TOTEN  =       281.76330627 eV

  energy without entropy =      281.75513244  energy(sigma->0) =      281.76126281


--------------------------------------------------------------------------------------------------------




----------------------------------------- Iteration    1(   3)  ---------------------------------------


     EDDAV:  cpu time   12.8974: real time   12.9001
       DOS:  cpu time    0.0013: real time    0.0013
    --------------------------------------------
      LOOP:  cpu time   12.9000: real time   12.9043

 eigenvalue-minimisations  :  3816
 total energy-change (2. order) :-0.7606906E+03  (-0.7386112E+03)
 number of electron     350.0000000 magnetization 
 augmentation part      350.0000000 magnetization 

 Free energy of the ion-electron system (eV)
  ---------------------------------------------------
  alpha Z        PSCENC =       518.63607455
  Ewald energy   TEWEN  =     71941.23062861
  -Hartree energ DENC   =    -90379.37521899
  -exchange      EXHF   =         0.00000000
  -V(xc)+E(xc)   XCENC  =     -3060.67235707
  PAW double counting   =     19785.83060006   -15696.39549147
  entropy T*S    EENTRO =         0.01138964
  eigenvalues    EBANDS =     -4146.55743441
  atomic energy  EATOM  =     20558.36454164
  Solvation  Ediel_sol  =         0.00000000
  ---------------------------------------------------
  free energy    TOTEN  =      -478.92726744 eV

  energy without entropy =     -478.93865708  energy(sigma->0) =     -478.93011485


--------------------------------------------------------------------------------------------------------




----------------------------------------- Iteration    1(   4)  ---------------------------------------


     EDDAV:  cpu time   11.9292: real time   11.9408
       DOS:  cpu time    0.0013: real time    0.0013
    --------------------------------------------
      LOOP:  cpu time   11.9316: real time   11.9447

 eigenvalue-minimisations  :  3472
 total energy-change (2. order) :-0.9438539E+02  (-0.9006013E+02)
 number of electron     350.0000000 magnetization 
 augmentation part      350.0000000 magnetization 

 Free energy of the ion-electron system (eV)
  ---------------------------------------------------
  alpha Z        PSCENC =       518.63607455
  Ewald energy   TEWEN  =     71941.23062861
  -Hartree energ DENC   =    -90379.37521899
  -exchange      EXHF   =         0.00000000
  -V(xc)+E(xc)   XCENC  =     -3060.67235707
  PAW double counting   =     19785.83060006   -15696.39549147
  entropy T*S    EENTRO =         0.00200788
  eigenvalues    EBANDS =     -4240.93344014
  atomic energy  EATOM  =     20558.36454164
  Solvation  Ediel_sol  =         0.00000000
  ---------------------------------------------------
  free energy    TOTEN  =      -573.31265493 eV

  energy without entropy =     -573.31466281  energy(sigma->0) =     -573.31315690


--------------------------------------------------------------------------------------------------------




----------------------------------------- Iteration    1(   5)  ---------------------------------------


     EDDAV:  cpu time   13.4662: real time   13.4673
       DOS:  cpu time    0.0013: real time    0.0013
    CHARGE:  cpu time    0.1969: real time    0.1982
    MIXING:  cpu time    0.0051: real time    0.0054
    --------------------------------------------
      LOOP:  cpu time   13.6707: real time   13.6753

 eigenvalue-minimisations  :  4016
 total energy-change (2. order) :-0.1437335E+02  (-0.1394976E+02)
 number of electron     350.0000009 magnetization 
 augmentation part       42.3108773 magnetization 

 Broyden mixing:
  rms(total) = 0.59799E+01    rms(broyden)= 0.59799E+01
  rms(prec ) = 0.66012E+01
  weight for this iteration     100.00

 Free energy of the ion-electron system (eV)
  ---------------------------------------------------
  alpha Z        PSCENC =       518.63607455
  Ewald energy   TEWEN  =     71941.23062861
  -Hartree energ DENC   =    -90379.37521899
  -exchange      EXHF   =         0.00000000
  -V(xc)+E(xc)   XCENC  =     -3060.67235707
  PAW double counting   =     19785.83060006   -15696.39549147
  entropy T*S    EENTRO =         0.01222873
  eigenvalues    EBANDS =     -4255.31701365
  atomic energy  EATOM  =     20558.36454164
  Solvation  Ediel_sol  =         0.00000000
  ---------------------------------------------------
  free energy    TOTEN  =      -587.68600759 eV

  energy without entropy =     -587.69823632  energy(sigma->0) =     -587.68906477


--------------------------------------------------------------------------------------------------------




----------------------------------------- Iteration    1(   6)  ---------------------------------------


    POTLOK:  cpu time    0.0490: real time    0.0490
    SETDIJ:  cpu time    0.0062: real time    0.0062
    EDDIAG:  cpu time    0.7918: real time    0.7944
  RMM-DIIS:  cpu time    8.7232: real time    8.7237
    ORTHCH:  cpu time    0.2186: real time    0.2237
       DOS:  cpu time    0.0013: real time    0.0013
    CHARGE:  cpu time    0.1943: real time    0.1943
    MIXING:  cpu time    0.0029: real time    0.0029
    --------------------------------------------
      LOOP:  cpu time    9.9894: real time    9.9999

 eigenvalue-minimisations  :  3522
 total energy-change (2. order) :-0.4807693E+02  (-0.1445472E+03)
 number of electron     350.0000005 magnetization 
 augmentation part       57.4938836 magnetization 

 Broyden mixing:
  rms(total) = 0.41473E+01    rms(broyden)= 0.41473E+01
  rms(prec ) = 0.53100E+01
  weight for this iteration     100.00

 eigenvalues of (default mixing * dielectric matrix)
  average eigenvalue GAMMA=   0.7186
  0.7186

 Free energy of the ion-electron system (eV)
  ---------------------------------------------------
  alpha Z        PSCENC =       518.63607455
  Ewald energy   TEWEN  =     71941.23062861
  -Hartree energ DENC   =    -91060.06048915
  -exchange      EXHF   =         0.00000000
  -V(xc)+E(xc)   XCENC  =     -3050.11578939
  PAW double counting   =     23273.27377433   -19184.13518936
  entropy T*S    EENTRO =        -0.01238788
  eigenvalues    EBANDS =     -3632.94410263
  atomic energy  EATOM  =     20558.36454164
  Solvation  Ediel_sol  =         0.00000000
  ---------------------------------------------------
  free energy    TOTEN  =      -635.76293928 eV

  energy without entropy =     -635.75055140  energy(sigma->0) =     -635.75984231


--------------------------------------------------------------------------------------------------------




----------------------------------------- Iteration    1(   7)  ---------------------------------------


    POTLOK:  cpu time    0.0481: real time    0.0481
    SETDIJ:  cpu time    0.0060: real time    0.0060
    EDDIAG:  cpu time    0.7902: real time    0.7941
  RMM-DIIS:  cpu time    5.9037: real time    5.9037
    ORTHCH:  cpu time    0.2197: real time    0.2232
       DOS:  cpu time    0.0015: real time    0.0015
    CHARGE:  cpu time    0.1946: real time    0.1946
    MIXING:  cpu time    0.0019: real time    0.0020
    --------------------------------------------
      LOOP:  cpu time    7.1673: real time    7.1774

 eigenvalue-minimisations  :  2365
 total energy-change (2. order) : 0.1035614E+03  (-0.3285876E+02)
 number of electron     350.0000006 magnetization 
 augmentation part       48.9275209 magnetization 

 Broyden mixing:
  rms(total) = 0.27629E+01    rms(broyden)= 0.27629E+01
  rms(prec ) = 0.33610E+01
  weight for this iteration     100.00

 eigenvalues of (default mixing * dielectric matrix)
  average eigenvalue GAMMA=   0.7798
  1.1939  0.3656

 Free energy of the ion-electron system (eV)
  ---------------------------------------------------
  alpha Z        PSCENC =       518.63607455
  Ewald energy   TEWEN  =     71941.23062861
  -Hartree energ DENC   =    -90664.75694360
  -exchange      EXHF   =         0.00000000
  -V(xc)+E(xc)   XCENC  =     -3051.12192997
  PAW double counting   =     23631.97428225   -19555.43850227
  entropy T*S    EENTRO =         0.00968153
  eigenvalues    EBANDS =     -3911.09938934
  atomic energy  EATOM  =     20558.36454164
  Solvation  Ediel_sol  =         0.00000000
  ---------------------------------------------------
  free energy    TOTEN  =      -532.20155659 eV

  energy without entropy =     -532.21123812  energy(sigma->0) =     -532.20397697


--------------------------------------------------------------------------------------------------------




----------------------------------------- Iteration    1(   8)  ---------------------------------------


    POTLOK:  cpu time    0.0487: real time    0.0487
    SETDIJ:  cpu time    0.0060: real time    0.0060
    EDDIAG:  cpu time    0.7934: real time    0.7965
  RMM-DIIS:  cpu time    8.0374: real time    8.0375
    ORTHCH:  cpu time    0.2181: real time    0.2220
       DOS:  cpu time    0.0014: real time    0.0014
    CHARGE:  cpu time    0.1944: real time    0.1944
    MIXING:  cpu time    0.0020: real time    0.0020
    --------------------------------------------
      LOOP:  cpu time    9.3030: real time    9.3128

 eigenvalue-minimisations  :  3251
 total energy-change (2. order) :-0.7542592E+01  (-0.1435195E+02)
 number of electron     350.0000006 magnetization 
 augmentation part       48.6469668 magnetization 

 Broyden mixing:
  rms(total) = 0.22448E+01    rms(broyden)= 0.22448E+01
  rms(prec ) = 0.37577E+01
  weight for this iteration     100.00

 eigenvalues of (default mixing * dielectric matrix)
  average eigenvalue GAMMA=   0.7259
  1.4388  0.3694  0.3694

 Free energy of the ion-electron system (eV)
  ---------------------------------------------------
  alpha Z        PSCENC =       518.63607455
  Ewald energy   TEWEN  =     71941.23062861
  -Hartree energ DENC   =    -90723.33175225
  -exchange      EXHF   =         0.00000000
  -V(xc)+E(xc)   XCENC  =     -3048.69056159
  PAW double counting   =     24580.12483429   -20504.19862126
  entropy T*S    EENTRO =         0.01497436
  eigenvalues    EBANDS =     -3861.89426699
  atomic energy  EATOM  =     20558.36454164
  Solvation  Ediel_sol  =         0.00000000
  ---------------------------------------------------
  free energy    TOTEN  =      -539.74414864 eV

  energy without entropy =     -539.75912300  energy(sigma->0) =     -539.74789223


--------------------------------------------------------------------------------------------------------




----------------------------------------- Iteration    1(   9)  ---------------------------------------


    POTLOK:  cpu time    0.0486: real time    0.0486
    SETDIJ:  cpu time    0.0060: real time    0.0060
    EDDIAG:  cpu time    0.7973: real time    0.7991
  RMM-DIIS:  cpu time    9.0182: real time    9.0183
    ORTHCH:  cpu time    0.2147: real time    0.2233
       DOS:  cpu time    0.0014: real time    0.0014
    CHARGE:  cpu time    0.1943: real time    0.1943
    MIXING:  cpu time    0.0020: real time    0.0020
    --------------------------------------------
      LOOP:  cpu time   10.2841: real time   10.2974

 eigenvalue-minimisations  :  3629
 total energy-change (2. order) : 0.6463656E+01  (-0.6525099E+01)
 number of electron     350.0000005 magnetization 
 augmentation part       49.1864261 magnetization 

 Broyden mixing:
  rms(total) = 0.19670E+01    rms(broyden)= 0.19670E+01
  rms(prec ) = 0.34885E+01
  weight for this iteration     100.00

 eigenvalues of (default mixing * dielectric matrix)
  average eigenvalue GAMMA=   0.6443
  1.5790  0.4167  0.4167  0.1649

 Free energy of the ion-electron system (eV)
  ---------------------------------------------------
  alpha Z        PSCENC =       518.63607455
  Ewald energy   TEWEN  =     71941.23062861
  -Hartree energ DENC   =    -90774.30460693
  -exchange      EXHF   =         0.00000000
  -V(xc)+E(xc)   XCENC  =     -3046.46232352
  PAW double counting   =     25037.66354416   -20959.19826306
  entropy T*S    EENTRO =        -0.01419219
  eigenvalues    EBANDS =     -3809.19589591
  atomic energy  EATOM  =     20558.36454164
  Solvation  Ediel_sol  =         0.00000000
  ---------------------------------------------------
  free energy    TOTEN  =      -533.28049263 eV

  energy without entropy =     -533.26630044  energy(sigma->0) =     -533.27694458


--------------------------------------------------------------------------------------------------------




----------------------------------------- Iteration    1(  10)  ---------------------------------------


    POTLOK:  cpu time    0.0486: real time    0.0486
    SETDIJ:  cpu time    0.0060: real time    0.0060
    EDDIAG:  cpu time    0.7997: real time    0.8027
  RMM-DIIS:  cpu time    8.3741: real time    8.3742
    ORTHCH:  cpu time    0.2167: real time    0.2221
       DOS:  cpu time    0.0015: real time    0.0015
    CHARGE:  cpu time    0.1946: real time    0.1946
    MIXING:  cpu time    0.0023: real time    0.0023
    --------------------------------------------
      LOOP:  cpu time    9.6452: real time    9.6562

 eigenvalue-minimisations  :  3363
 total energy-change (2. order) : 0.1625506E+02  (-0.2594016E+01)
 number of electron     350.0000006 magnetization 
 augmentation part       49.0703898 magnetization 

 Broyden mixing:
  rms(total) = 0.98775E+00    rms(broyden)= 0.98775E+00
  rms(prec ) = 0.12400E+01
  weight for this iteration     100.00

 eigenvalues of (default mixing * dielectric matrix)
  average eigenvalue GAMMA=   0.6223
  1.5942  0.5267  0.5267  0.3221  0.1420

 Free energy of the ion-electron system (eV)
  ---------------------------------------------------
  alpha Z        PSCENC =       518.63607455
  Ewald energy   TEWEN  =     71941.23062861
  -Hartree energ DENC   =    -90830.29677782
  -exchange      EXHF   =         0.00000000
  -V(xc)+E(xc)   XCENC  =     -3044.05539225
  PAW double counting   =     25512.14920591   -21430.55827033
  entropy T*S    EENTRO =        -0.01010287
  eigenvalues    EBANDS =     -3742.48534412
  atomic energy  EATOM  =     20558.36454164
  Solvation  Ediel_sol  =         0.00000000
  ---------------------------------------------------
  free energy    TOTEN  =      -517.02543667 eV

  energy without entropy =     -517.01533380  energy(sigma->0) =     -517.02291095


--------------------------------------------------------------------------------------------------------




----------------------------------------- Iteration    1(  11)  ---------------------------------------


    POTLOK:  cpu time    0.0487: real time    0.0487
    SETDIJ:  cpu time    0.0059: real time    0.0059
    EDDIAG:  cpu time    0.7935: real time    0.8006
  RMM-DIIS:  cpu time    8.5790: real time    8.5791
    ORTHCH:  cpu time    0.2162: real time    0.2214
       DOS:  cpu time    0.0014: real time    0.0014
    CHARGE:  cpu time    0.1945: real time    0.1945
    MIXING:  cpu time    0.0024: real time    0.0025
    --------------------------------------------
      LOOP:  cpu time    9.8433: real time    9.8581

 eigenvalue-minimisations  :  3463
 total energy-change (2. order) : 0.5803655E+00  (-0.1436671E+01)
 number of electron     350.0000006 magnetization 
 augmentation part       49.8542403 magnetization 

 Broyden mixing:
  rms(total) = 0.77341E+00    rms(broyden)= 0.77341E+00
  rms(prec ) = 0.95644E+00
  weight for this iteration     100.00

 eigenvalues of (default mixing * dielectric matrix)
  average eigenvalue GAMMA=   0.6265
  1.5740  0.7316  0.7316  0.2979  0.2847  0.1393

 Free energy of the ion-electron system (eV)
  ---------------------------------------------------
  alpha Z        PSCENC =       518.63607455
  Ewald energy   TEWEN  =     71941.23062861
  -Hartree energ DENC   =    -90838.53684782
  -exchange      EXHF   =         0.00000000
  -V(xc)+E(xc)   XCENC  =     -3042.78947507
  PAW double counting   =     25708.13720313   -21623.37996530
  entropy T*S    EENTRO =        -0.01078334
  eigenvalues    EBANDS =     -3738.09644758
  atomic energy  EATOM  =     20558.36454164
  Solvation  Ediel_sol  =         0.00000000
  ---------------------------------------------------
  free energy    TOTEN  =      -516.44507117 eV

  energy without entropy =     -516.43428783  energy(sigma->0) =     -516.44237534


--------------------------------------------------------------------------------------------------------




----------------------------------------- Iteration    1(  12)  ---------------------------------------


    POTLOK:  cpu time    0.0489: real time    0.0489
    SETDIJ:  cpu time    0.0061: real time    0.0061
    EDDIAG:  cpu time    0.7970: real time    0.7997
  RMM-DIIS:  cpu time    8.5911: real time    8.5911
    ORTHCH:  cpu time    0.2101: real time    0.2221
       DOS:  cpu time    0.0014: real time    0.0014
    CHARGE:  cpu time    0.1941: real time    0.1941
    MIXING:  cpu time    0.0025: real time    0.0025
    --------------------------------------------
      LOOP:  cpu time    9.8528: real time    9.8700

 eigenvalue-minimisations  :  3474
 total energy-change (2. order) : 0.4816590E+00  (-0.7033236E+00)
 number of electron     350.0000005 magnetization 
 augmentation part       50.2555582 magnetization 

 Broyden mixing:
  rms(total) = 0.54921E+00    rms(broyden)= 0.54921E+00
  rms(prec ) = 0.70098E+00
  weight for this iteration     100.00

 eigenvalues of (default mixing * dielectric matrix)
  average eigenvalue GAMMA=   0.6414
  1.5400  1.2175  0.6143  0.3743  0.3743  0.1402  0.2293

 Free energy of the ion-electron system (eV)
  ---------------------------------------------------
  alpha Z        PSCENC =       518.63607455
  Ewald energy   TEWEN  =     71941.23062861
  -Hartree energ DENC   =    -90846.67456022
  -exchange      EXHF   =         0.00000000
  -V(xc)+E(xc)   XCENC  =     -3041.70939431
  PAW double counting   =     25918.83229496   -21830.32277762
  entropy T*S    EENTRO =        -0.00132209
  eigenvalues    EBANDS =     -3734.31889772
  atomic energy  EATOM  =     20558.36454164
  Solvation  Ediel_sol  =         0.00000000
  ---------------------------------------------------
  free energy    TOTEN  =      -515.96341219 eV

  energy without entropy =     -515.96209010  energy(sigma->0) =     -515.96308167


--------------------------------------------------------------------------------------------------------




----------------------------------------- Iteration    1(  13)  ---------------------------------------


    POTLOK:  cpu time    0.0490: real time    0.0490
    SETDIJ:  cpu time    0.0060: real time    0.0060
    EDDIAG:  cpu time    0.7943: real time    0.8005
  RMM-DIIS:  cpu time    8.3762: real time    8.3763
    ORTHCH:  cpu time    0.2202: real time    0.2218
       DOS:  cpu time    0.0014: real time    0.0014
    CHARGE:  cpu time    0.1963: real time    0.1963
    MIXING:  cpu time    0.0026: real time    0.0026
    --------------------------------------------
      LOOP:  cpu time    9.6478: real time    9.6582

 eigenvalue-minimisations  :  3375
 total energy-change (2. order) : 0.1759670E+00  (-0.5719565E+00)
 number of electron     350.0000005 magnetization 
 augmentation part       50.5031541 magnetization 

 Broyden mixing:
  rms(total) = 0.42319E+00    rms(broyden)= 0.42319E+00
  rms(prec ) = 0.54229E+00
  weight for this iteration     100.00

 eigenvalues of (default mixing * dielectric matrix)
  average eigenvalue GAMMA=   0.6811
  1.6238  1.6238  0.6059  0.6059  0.3566  0.2904  0.1403  0.2025

 Free energy of the ion-electron system (eV)
  ---------------------------------------------------
  alpha Z        PSCENC =       518.63607455
  Ewald energy   TEWEN  =     71941.23062861
  -Hartree energ DENC   =    -90848.09260864
[...]
  0.001   0.002   5.762   0.000  -0.000  16.652   0.000  -0.001
 -0.004  -0.007   0.000   5.763  -0.000   0.000  16.656  -0.000
  0.001   0.002  -0.000  -0.000   5.761  -0.001  -0.000  16.649
 total augmentation occupancy for first ion, spin component:           1
  3.401  -0.778  -0.026   0.158  -0.016   0.004  -0.024   0.003
 -0.778   0.196   0.016  -0.099   0.008  -0.001   0.009  -0.001
 -0.026   0.016   1.208   0.011  -0.000  -0.071  -0.001  -0.000
  0.158  -0.099   0.011   0.992   0.014  -0.001  -0.054  -0.001
 -0.016   0.008  -0.000   0.014   1.221  -0.000  -0.001  -0.070
  0.004  -0.001  -0.071  -0.001  -0.000   0.004   0.000   0.000
 -0.024   0.009  -0.001  -0.054  -0.001   0.000   0.003   0.000
  0.003  -0.001  -0.000  -0.001  -0.070   0.000   0.000   0.004


------------------------ aborting loop because EDIFF is reached ----------------------------------------


    CHARGE:  cpu time    0.1940: real time    0.1940
    FORLOC:  cpu time    0.0191: real time    0.0191
    FORNL :  cpu time    8.1020: real time    8.1020
    STRESS:  cpu time    6.8993: real time    6.8993
    FORCOR:  cpu time    0.0726: real time    0.0726
    FORHAR:  cpu time    0.0312: real time    0.0312
    MIXING:  cpu time    0.0020: real time    0.0020
    OFIELD:  cpu time    0.0000: real time    0.0000

  FORCE on cell =-STRESS in cart. coord.  units (eV):
  Direction    XX          YY          ZZ          XY          YZ          ZX
  --------------------------------------------------------------------------------------
  Alpha Z   518.63607   518.63607   518.63607
  Ewald   77838.64821 83179.70083-89078.78648  -751.00308    -2.00717   462.78968
  Hartree 82278.83975 87408.11367-78769.18608  -591.51820   -19.39367   441.63792
  E(xc)   -1470.66757 -1472.44985 -1461.55874    -0.41061    -0.67355     0.03033
  Local  ************************164208.71116  1339.93920    24.19572  -904.68741
  n-local   -42.96465   -47.35824   -76.23949     8.45031    -1.47982     1.69982
  augment   442.79938   443.65758   438.65655    -0.97527     0.31390    -0.04621
  Kinetic  4197.07424  4185.47021  4204.13071    -5.38898     4.45042    -2.65190
  Fock        0.00000     0.00000     0.00000     0.00000     0.00000     0.00000
  -------------------------------------------------------------------------------------
  Total     -36.00796   -35.30245   -15.63630    -0.90663     5.40582    -1.22777
  in kB     -15.83356   -15.52333    -6.87565    -0.39867     2.37707    -0.53988
  external pressure =      -12.74 kB  Pullay stress =        0.00 kB


 VOLUME and BASIS-vectors are now :
 -----------------------------------------------------------------------------
  energy-cutoff  :      600.00
  volume of cell :     3643.60
      direct lattice vectors                 reciprocal lattice vectors
    13.771350861  0.000000000  0.000000000     0.072614518  0.000000000  0.000000000
     0.000000000  9.564481735  0.000000000     0.000000000  0.104553496  0.000000000
     0.000000000  0.000000000 27.662570434     0.000000000  0.000000000  0.036149931

  length of vectors
    13.771350861  9.564481735 27.662570434     0.072614518  0.104553496  0.036149931


 FORCES acting on ions
    electron-ion (+dipol)            ewald-force                    non-local-force                 convergence-correction
 -----------------------------------------------------------------------------------------------
   -.471E+02 -.338E+02 0.375E+03   0.469E+02 0.335E+02 -.374E+03   0.111E+00 0.906E-01 -.805E+00   -.848E-02 -.944E-03 -.666E-02
   -.184E+02 -.370E+02 -.142E+03   0.183E+02 0.368E+02 0.142E+03   0.112E+00 0.200E+00 0.971E-01   -.761E-02 0.145E-02 -.151E-01
   0.289E+02 0.256E+02 -.376E+03   -.287E+02 -.250E+02 0.375E+03   -.196E+00 -.585E+00 0.108E+01   -.423E-02 -.231E-02 -.571E-02
   0.135E+01 0.565E+01 0.189E+03   -.140E+01 -.550E+01 -.189E+03   0.288E-01 -.309E+00 -.765E+00   -.937E-02 0.175E-02 -.130E-01
   -.641E+02 0.648E+01 -.125E+03   0.639E+02 -.618E+01 0.126E+03   0.260E+00 -.297E+00 -.130E+01   0.395E-02 -.191E-02 -.128E-01
   -.465E+02 0.463E+01 0.317E+03   0.458E+02 -.405E+01 -.315E+03   0.682E+00 -.100E+01 -.230E+01   0.890E-02 -.188E-03 -.637E-02
   -.380E+03 -.943E+01 0.420E+03   0.380E+03 0.102E+02 -.422E+03   0.460E-01 -.332E+00 0.928E+00   -.245E-01 0.568E-02 -.540E-01
   -.315E+03 0.359E+02 -.167E+04   0.313E+03 -.347E+02 0.167E+04   0.161E+01 -.117E+01 0.410E+01   -.848E-02 -.202E-01 -.287E-01
   0.101E+03 -.885E+01 0.161E+04   -.101E+03 0.778E+01 -.160E+04   -.556E+00 0.612E+00 -.433E+01   -.304E-01 -.431E-02 -.194E-01
   0.197E+03 -.147E+02 -.426E+03   -.197E+03 0.148E+02 0.428E+03   0.167E+00 -.526E-01 -.123E+01   -.263E-01 0.164E-01 -.862E-01
   -.546E+02 0.137E+03 0.168E+04   0.554E+02 -.137E+03 -.168E+04   -.516E+00 -.397E+00 -.278E+01   -.425E-01 0.503E-02 -.212E-01
   0.789E+02 0.137E+03 -.435E+03   -.781E+02 -.137E+03 0.435E+03   -.770E+00 0.428E-01 -.270E+00   -.322E-01 -.193E-01 -.661E-01
   -.418E+03 0.302E+01 0.689E+03   0.419E+03 -.417E+01 -.688E+03   -.740E+00 0.141E+01 -.160E+01   -.117E-01 -.803E-02 -.622E-01
   -.172E+03 -.378E+02 -.153E+04   0.173E+03 0.373E+02 0.153E+04   -.151E+01 0.467E+00 0.325E+01   -.165E-01 0.240E-01 -.298E-01
   0.298E+03 -.115E+03 0.151E+04   -.298E+03 0.116E+03 -.151E+04   0.261E+00 -.374E+00 -.415E+01   -.214E-01 0.176E-01 -.271E-01
   0.367E+03 -.119E+03 -.472E+03   -.368E+03 0.119E+03 0.473E+03   0.120E+00 0.200E+00 -.783E+00   -.327E-02 0.838E-02 -.817E-01
   -.133E+02 0.200E+01 0.167E+03   0.128E+02 -.193E+01 -.167E+03   0.564E+00 -.246E+00 0.990E-01   -.125E-01 -.281E-02 -.224E-01
   -.127E+01 -.465E+02 -.659E+03   0.111E+01 0.461E+02 0.656E+03   0.177E+00 0.422E+00 0.230E+01   -.113E-01 0.428E-02 -.996E-02
   0.174E+03 -.495E+01 0.154E+03   -.173E+03 0.485E+01 -.155E+03   -.137E+01 0.454E+00 0.547E+00   0.246E-02 0.166E-02 -.280E-01
   0.143E+03 -.139E+02 -.599E+03   -.142E+03 0.142E+02 0.596E+03   -.125E+01 -.265E+00 0.308E+01   0.330E-02 -.912E-03 -.136E-01
   0.130E+03 -.521E+02 -.135E+03   -.130E+03 0.518E+02 0.135E+03   -.190E+00 0.288E+00 0.886E-01   0.252E-02 -.349E-02 -.212E-01
   0.117E+03 -.555E+02 0.463E+03   -.116E+03 0.555E+02 -.460E+03   -.843E+00 -.221E+00 -.271E+01   0.380E-02 0.141E-02 -.372E-02
   -.104E+03 0.652E+02 -.157E+03   0.103E+03 -.648E+02 0.157E+03   0.197E+00 -.382E+00 0.617E+00   -.542E-02 -.257E-02 -.174E-01
   -.101E+03 0.598E+02 0.516E+03   0.100E+03 -.592E+02 -.513E+03   0.452E+00 -.489E+00 -.277E+01   -.653E-02 -.106E-03 -.788E-02
   0.792E+02 -.117E+02 0.152E+03   -.802E+02 0.112E+02 -.152E+03   0.930E+00 0.762E+00 -.506E+00   -.899E-02 -.402E-03 -.201E-01
   0.313E+02 -.410E+02 -.542E+03   -.325E+02 0.407E+02 0.539E+03   0.119E+01 0.257E+00 0.256E+01   -.633E-02 0.740E-03 -.822E-02
   -.129E+03 -.649E+01 -.450E+03   0.129E+03 0.670E+01 0.448E+03   0.127E+00 -.209E+00 0.228E+01   0.360E-03 -.161E-02 -.592E-02
   -.166E+03 0.687E+01 0.179E+03   0.166E+03 -.663E+01 -.180E+03   0.433E+00 -.416E+00 0.290E+00   0.286E-02 0.150E-03 -.155E-01
   -.151E+03 -.570E+01 0.472E+03   0.150E+03 0.565E+01 -.469E+03   0.648E+00 -.572E-01 -.259E+01   0.338E-02 0.358E-02 -.876E-02
   -.203E+03 0.133E+01 -.169E+03   0.202E+03 -.118E+01 0.168E+03   0.643E+00 -.141E+00 0.432E+00   0.175E-02 -.219E-02 -.174E-01
   0.818E+02 0.137E+00 0.163E+03   -.820E+02 0.278E+00 -.163E+03   0.546E-01 -.832E-01 -.416E-01   -.113E-01 0.479E-03 -.176E-01
   0.481E+02 0.388E+02 -.533E+03   -.473E+02 -.383E+02 0.531E+03   -.772E+00 -.453E+00 0.237E+01   -.773E-02 -.250E-02 -.858E-02
   0.639E+02 0.368E+01 -.171E+03   -.643E+02 -.354E+01 0.170E+03   0.370E+00 -.134E+00 0.573E+00   -.737E-02 -.417E-02 -.212E-01
   0.357E+02 -.103E+01 0.496E+03   -.364E+02 0.959E+00 -.493E+03   0.604E+00 0.296E-01 -.253E+01   -.151E-01 0.696E-03 -.563E-02
   0.132E+03 0.860E+01 0.148E+03   -.131E+03 -.886E+01 -.148E+03   -.725E+00 0.686E+00 -.367E+00   -.497E-02 -.427E-02 -.191E-01
   0.111E+03 -.287E+02 -.495E+03   -.110E+03 0.300E+02 0.492E+03   -.857E+00 -.128E+01 0.212E+01   -.410E-02 0.225E-02 -.103E-01
   0.127E+03 0.730E+01 0.168E+03   -.128E+03 -.699E+01 -.168E+03   0.416E-01 -.307E+00 -.444E+00   0.530E-02 -.969E-03 -.213E-01
   0.129E+03 0.274E+01 -.423E+03   -.130E+03 -.296E+01 0.421E+03   0.692E+00 0.226E+00 0.183E+01   0.408E-02 0.163E-03 -.951E-02
   0.126E+03 0.394E+02 0.419E+03   -.126E+03 -.391E+02 -.416E+03   0.151E+00 -.473E+00 -.283E+01   0.388E-02 -.124E-02 -.601E-02
   0.132E+03 0.263E+02 -.148E+03   -.132E+03 -.259E+02 0.148E+03   -.292E+00 -.370E+00 -.803E+00   0.404E-02 0.196E-02 -.206E-01
   -.993E+02 -.101E+01 0.480E+03   0.996E+02 0.992E+00 -.476E+03   -.470E+00 0.393E-01 -.309E+01   0.420E-02 -.308E-02 -.830E-02
   -.155E+03 -.635E+00 -.139E+03   0.155E+03 0.591E+00 0.140E+03   0.483E+00 0.418E-01 -.574E+00   0.282E-02 0.275E-02 -.179E-01
   0.131E+03 0.283E+02 0.447E+03   -.130E+03 -.286E+02 -.445E+03   -.206E+00 0.327E+00 -.251E+01   -.530E-02 -.389E-02 -.477E-02
   0.144E+03 0.327E+02 -.138E+03   -.144E+03 -.324E+02 0.137E+03   -.607E+00 -.242E+00 0.860E+00   -.315E-02 -.958E-04 -.197E-01
   0.674E+02 0.292E+02 -.484E+03   -.680E+02 -.302E+02 0.480E+03   0.554E+00 0.102E+01 0.352E+01   -.225E-02 -.189E-02 -.841E-02
   0.129E+03 -.497E+01 0.190E+03   -.129E+03 0.462E+01 -.191E+03   0.266E+00 0.181E+00 0.236E-01   -.507E-02 0.341E-02 -.229E-01
   0.350E+02 0.251E+01 0.127E+03   -.347E+02 -.257E+01 -.128E+03   -.735E-01 -.712E-01 0.346E+00   0.908E-02 -.207E-02 -.204E-01
   0.181E+02 0.295E+01 -.438E+03   -.184E+02 -.301E+01 0.435E+03   0.233E+00 0.584E-01 0.329E+01   0.851E-02 0.234E-03 -.682E-02
   -.415E+02 -.175E+00 0.433E+03   0.418E+02 0.535E+00 -.430E+03   -.513E-01 -.275E+00 -.276E+01   0.896E-02 0.438E-03 -.676E-02
   -.702E+02 -.651E+01 -.147E+03   0.701E+02 0.616E+01 0.147E+03   0.328E-01 0.347E+00 0.329E-01   0.855E-02 0.829E-03 -.192E-01
   0.512E+02 -.290E+01 0.412E+03   -.513E+02 0.227E+01 -.409E+03   -.340E-02 0.173E+00 -.309E+01   0.113E-01 0.142E-02 -.783E-02
   0.463E+02 0.708E+00 -.153E+03   -.459E+02 -.940E+00 0.153E+03   -.345E+00 0.231E+00 -.639E+00   0.816E-02 -.110E-03 -.200E-01
   -.714E+02 -.248E+01 0.162E+03   0.714E+02 0.273E+01 -.163E+03   0.500E-01 0.809E-01 0.141E+00   0.107E-01 0.126E-02 -.176E-01
   -.604E+02 0.359E+00 -.422E+03   0.610E+02 -.703E-01 0.419E+03   -.551E+00 -.285E+00 0.300E+01   0.691E-02 -.199E-02 -.627E-02
   0.403E+02 0.980E+00 0.428E+03   -.396E+02 -.859E+00 -.424E+03   -.825E+00 -.279E+00 -.319E+01   0.121E-01 -.169E-02 -.454E-02
   0.332E+02 -.277E+01 -.123E+03   -.327E+02 0.287E+01 0.124E+03   -.523E+00 -.102E+00 -.528E+00   0.731E-02 0.770E-04 -.196E-01
   -.964E+02 0.376E+00 0.134E+03   0.959E+02 -.572E+00 -.134E+03   0.413E+00 0.231E+00 0.145E+00   0.829E-02 -.983E-03 -.195E-01
   -.950E+02 -.348E+01 -.456E+03   0.941E+02 0.288E+01 0.452E+03   0.914E+00 0.589E+00 0.363E+01   0.551E-02 0.258E-02 -.513E-02
   0.370E+02 -.436E+00 -.410E+03   -.362E+02 0.742E+00 0.408E+03   -.762E+00 -.307E+00 0.242E+01   0.527E-02 -.926E-03 -.877E-02
   0.513E+02 -.623E+01 0.167E+03   -.508E+02 0.607E+01 -.168E+03   -.610E+00 0.588E+00 0.930E-01   0.116E-01 0.190E-02 -.212E-01
   -.141E+03 -.429E+02 0.512E+03   0.140E+03 0.423E+02 -.508E+03   0.821E+00 0.453E-01 -.325E+01   -.521E-02 -.265E-04 -.742E-02
   -.147E+03 -.443E+02 -.133E+03   0.147E+03 0.438E+02 0.134E+03   0.263E+00 0.573E+00 -.815E+00   -.463E-02 0.204E-02 -.203E-01
   -.159E+03 0.459E+01 0.162E+03   0.158E+03 -.463E+01 -.163E+03   0.729E+00 0.429E+00 0.338E+00   0.337E-02 0.149E-03 -.174E-01
   -.135E+03 0.559E+01 -.464E+03   0.135E+03 -.492E+01 0.460E+03   0.506E+00 -.672E+00 0.320E+01   0.310E-02 0.645E-03 -.448E-02
   0.134E+03 0.376E+02 -.758E+03   -.135E+03 -.381E+02 0.767E+03   0.730E+00 0.432E+00 -.852E+01   -.135E-01 0.691E-03 -.781E-02
 -----------------------------------------------------------------------------------------------
   -.862E+00 0.729E+00 0.164E+02   -.284E-12 0.107E-12 -.114E-12   0.106E+01 -.739E+00 -.152E+02   -.202E+00 0.149E-01 -.120E+01
 
 
 POSITION                                       TOTAL-FORCE (eV/Angst)
 -----------------------------------------------------------------------------------
      8.57631      8.29685     10.39845        -0.088591     -0.148640      0.011869
      8.55017      3.74579     15.13993         0.000501     -0.003272      0.005511
      8.50176      6.10564     17.30253        -0.005042     -0.000759     -0.004126
      8.51616      0.79995     12.43874        -0.032089     -0.159081     -0.230798
     13.44885      6.08794     15.31831        -0.000881      0.005187     -0.002341
     13.49094      1.15316     10.44749        -0.008458     -0.420893     -0.063253
     10.03344      3.28428     12.67411        -0.072840      0.437285     -0.545233
      9.99565      8.62342     17.19529         0.001391     -0.001670      0.002227
      7.12524      5.81577     10.15765        -0.181216     -0.467713      0.906105
      7.07242      1.26087     14.94576         0.000130     -0.001669     -0.000068
      8.51222      3.28036     10.20450         0.252120      0.091247      0.726772
      8.54312      8.36140     14.89856        -0.003110     -0.003828      0.003940
     10.22263      8.06723     12.77991         0.261348      0.252728     -0.479315
     10.22544      3.76937     17.38799         0.001073     -0.001386      0.003273
      5.42664      8.10481     10.20639         0.302957      0.073317      0.934095
      5.41711      3.53601     15.00696         0.001495      0.000974      0.001008
      8.52843      5.75423     12.65640         0.101012     -0.185288     -0.079825
      8.58323      1.45730     17.21114         0.000975     -0.005126      0.003489
      3.84829      7.97317     12.47259        -0.397519      0.355889     -0.445688
      3.90113      3.66759     17.16401        -0.001142     -0.000275     -0.001736
      3.85366      5.68464     14.95351        -0.002500     -0.002543      0.001662
      3.90063      0.73891     10.00000         0.483108     -0.150836      0.321717
     10.13191      6.05095     14.93667        -0.000162     -0.000808      0.000263
     10.19112      1.10470     10.13736        -0.204251      0.040984      0.361172
      6.82945      7.99424     12.66670        -0.075703      0.286277     -0.306163
      6.81945      3.63254     17.34868         0.001140     -0.003029      0.002775
     11.49465      6.15592     17.26435         0.000457     -0.002185      0.003155
     11.66772      1.05372     12.57547        -0.059023     -0.181758     -0.672143
     11.73919      3.33868     10.41199        -0.297903     -0.104915      0.568595
     11.72951      8.28056     15.26389        -0.003039      0.000987      0.002896
      7.18522      3.24644     12.75390        -0.168196      0.331635     -0.470787
      7.22270      8.58933     17.28276        -0.000169     -0.001701     -0.002161
      6.86984      5.99206     14.93477        -0.001367     -0.002057     -0.005257
      6.87795      0.97560     10.08695        -0.055655     -0.045854      0.164580
      5.51084      5.55012     12.48419        -0.008219      0.421243     -0.237758
      5.36981      1.18203     17.15396         0.001798     -0.002863     -0.002658
      3.51249      3.50019     12.83519        -0.035868      0.007384     -0.497155
      3.22011      8.74695     17.30383         0.002117     -0.002926     -0.003489
      3.46798      5.87237     10.40868         0.054424     -0.235959     -0.101813
      3.34664      1.27906     15.16068        -0.001951     -0.003144      0.000592
     11.91771      8.21633     10.24534        -0.139975      0.016951      0.665612
     11.89142      3.62372     15.08206         0.000929      0.000317      0.002962
      5.24135      3.36543     10.32679         0.192060      0.081882      0.142488
      5.18023      8.35121     15.13994        -0.001467     -0.003397     -0.001502
      5.30872      6.23942     17.41633         0.000254      0.001006     -0.000293
      5.28930      0.99064     12.60849         0.111041     -0.165618     -0.312852
      1.60538      5.84491     12.85122         0.173199     -0.130749     -0.431377
      1.55509      1.77367     17.56198        -0.002306     -0.002162      0.000710
     13.72038      5.67134     10.18293         0.199572      0.085783      0.653868
     13.69407      1.06876     15.13319        -0.000156     -0.001574      0.001030
      1.63456      8.33987     10.36453        -0.052703     -0.454945      0.162845
      1.59455      3.77065     15.18271        -0.002618     -0.000786     -0.000340
     13.76831      3.16119     12.53308         0.100221      0.333599     -0.327640
      0.00055      8.39237     17.31165        -0.000008      0.000658      0.001275
      1.99440      3.17314     10.17666        -0.121145     -0.159846      0.665425
      1.82742      8.05788     14.94736        -0.000041     -0.000294     -0.000019
     13.48051      8.37930     12.86886        -0.067072      0.034062     -0.427755
     13.29270      4.10290     17.72933        -0.001999     -0.004585      0.004261
      2.00469      6.02661     17.19828        -0.002601     -0.001771      0.000347
      2.02729      0.87737     12.46815        -0.037780      0.431069     -0.419062
     10.07171      5.79402     10.14663         0.131754     -0.608554      0.178517
     10.13496      1.23059     14.89125         0.000315     -0.000271     -0.000859
     11.97051      5.66181     12.67660        -0.244379      0.386680     -0.430881
     11.82675      1.38204     17.50744         0.000656     -0.001692      0.003588
      5.22875      8.60453     17.56093         0.003098     -0.000720     -0.004278
 -----------------------------------------------------------------------------------
    total drift:                               -0.006776      0.004441      0.068813


--------------------------------------------------------------------------------------------------------



  FREE ENERGIE OF THE ION-ELECTRON SYSTEM (eV)
  ---------------------------------------------------
  free  energy   TOTEN  =      -515.46606020 eV

  energy  without entropy=     -515.46201507  energy(sigma->0) =     -515.46504892
 
 d Force = 0.4222296E-05[ 0.627E-05, 0.217E-05]  d Energy =-0.1080644E-04 0.150E-04
 d Force = 0.1918184E+00[ 0.192E+00, 0.192E+00]  d Ewald  = 0.1918187E+00-0.358E-06


--------------------------------------------------------------------------------------------------------


    POTLOK:  cpu time    0.0590: real time    0.0590


--------------------------------------------------------------------------------------------------------




--------------------------------------------------------------------------------------------------------


  
 reached required accuracy - stopping structural energy minimisation
     LOOP+:  cpu time   37.9499: real time   37.9938
    4ORBIT:  cpu time    0.0000: real time    0.0000

 total amount of memory used by VASP on root node    76428. kBytes
========================================================================

   base      :      30000. kBytes
   nonl-proj :      13592. kBytes
   fftplans  :       3278. kBytes
   grid      :       7939. kBytes
   one-center:         31. kBytes
   wavefun   :      21588. kBytes
 
  
  
 General timing and accounting informations for this job:
 ========================================================
  
                  Total CPU time used (sec):      463.841
                            User time (sec):      455.485
                          System time (sec):        8.356
                         Elapsed time (sec):      464.423
  
                   Maximum memory used (kb):      153968.
                   Average memory used (kb):           0.
  
                          Minor page faults:        40129
                          Major page faults:            0
                 Voluntary context switches:         4004
