 vasp.5.4.1 05Feb16 (build Mar 19 2020 08:54:17) complex                        
  
 executed on           IFC91_ompi date 2021.10.23  14:26:11
 running on   96 total cores
 distrk:  each k-point on   96 cores,    1 groups
 distr:  one band on NCORES_PER_BAND=  48 cores,    2 groups


--------------------------------------------------------------------------------------------------------


 INCAR:
 POTCAR:    PAW_PBE Al 04Jan2001                  
 POTCAR:    PAW_PBE Nb_sv 25May2007               
 POTCAR:    PAW_PBE Ta 17Jan2003                  
 POTCAR:    PAW_PBE Ti 08Apr2002                  
 POTCAR:   PAW_PBE Zr 08Apr2002                   
 POTCAR:    PAW_PBE O 08Apr2002                   

 ----------------------------------------------------------------------------- 
|                                                                             |
|           W    W    AA    RRRRR   N    N  II  N    N   GGGG   !!!           |
|           W    W   A  A   R    R  NN   N  II  NN   N  G    G  !!!           |
|           W    W  A    A  R    R  N N  N  II  N N  N  G       !!!           |
|           W WW W  AAAAAA  RRRRR   N  N N  II  N  N N  G  GGG   !            |
|           WW  WW  A    A  R   R   N   NN  II  N   NN  G    G                |
|           W    W  A    A  R    R  N    N  II  N    N   GGGG   !!!           |
|                                                                             |
|      For optimal performance we recommend to set                            |
|        NCORE= 4 - approx SQRT( number of cores)                             |
|      NCORE specifies how many cores store one orbital (NPAR=cpu/NCORE).     |
|      This setting can  greatly improve the performance of VASP for DFT.     |
|      The default, NPAR=number of cores might be grossly inefficient         |
|      on modern multi-core architectures or massively parallel machines.     |
|      Do your own testing !!!!                                               |
|      Unfortunately you need to use the default for GW and RPA calculations. |
|      (for HF NCORE is supported but not extensively tested yet)             |
|                                                                             |
 ----------------------------------------------------------------------------- 

 POTCAR:    PAW_PBE Al 04Jan2001                  
   VRHFIN =Al: s2p1                                                             
   LEXCH  = PE                                                                  
   EATOM  =    53.5387 eV,    3.9350 Ry                                         
                                                                                
   TITEL  = PAW_PBE Al 04Jan2001                                                
   LULTRA =        F    use ultrasoft PP ?                                      
   IUNSCR =        1    unscreen: 0-lin 1-nonlin 2-no                           
   RPACOR =    1.500    partial core radius                                     
   POMASS =   26.981; ZVAL   =    3.000    mass and valenz                      
   RCORE  =    1.900    outmost cutoff radius                                   
   RWIGS  =    2.650; RWIGS  =    1.402    wigner-seitz radius (au A)           
   ENMAX  =  240.300; ENMIN  =  180.225 eV                                      
   ICORE  =        2    local potential                                         
   LCOR   =        T    correct aug charges                                     
   LPAW   =        T    paw PP                                                  
   EAUG   =  291.052                                                            
   DEXC   =    0.000                                                            
   RMAX   =    1.939    core radius for proj-oper                               
   RAUG   =    1.300    factor for augmentation sphere                          
   RDEP   =    1.966    radius for radial grids                                 
   RDEPT  =    1.856    core radius for aug-charge                              
                                                                                
   Atomic configuration                                                         
    6 entries                                                                   
     n  l   j            E        occ.                                          
     1  0  0.50     -1511.1048   2.0000                                         
     2  0  0.50      -108.1629   2.0000                                         
     2  1  1.50       -69.6402   6.0000                                         
     3  0  0.50        -7.7528   2.0000                                         
     3  1  1.50        -2.7121   1.0000                                         
     3  2  2.50        -2.7212   0.0000                                         
   Description                                                                  
     l       E           TYP  RCUT    TYP  RCUT                                 
     0     -7.7528455     23  1.900                                             
     0     -3.3096929     23  1.900                                             
     1     -2.7120682     23  1.900                                             
     1     13.6058260     23  1.900                                             
     2     -2.7211652      7  1.900                                             
  local pseudopotential read in
  partial core-charges read in
  partial kinetic energy density read in
  atomic valenz-charges read in
  non local Contribution for L=           0  read in
    real space projection operators read in
  non local Contribution for L=           0  read in
    real space projection operators read in
  non local Contribution for L=           1  read in
    real space projection operators read in
  non local Contribution for L=           1  read in
    real space projection operators read in
    PAW grid and wavefunctions read in
 
   number of l-projection  operators is LMAX  =           4
   number of lm-projection operators is LMMAX =           8
 
 POTCAR:    PAW_PBE Nb_sv 25May2007               
   VRHFIN =Nb: 4p5s4d                                                           
   LEXCH  = PE                                                                  
   EATOM  =  1555.1913 eV,  114.3033 Ry                                         
                                                                                
   TITEL  = PAW_PBE Nb_sv 25May2007                                             
   LULTRA =        F    use ultrasoft PP ?                                      
   IUNSCR =        1    unscreen: 0-lin 1-nonlin 2-no                           
   RPACOR =    1.800    partial core radius                                     
   POMASS =   92.910; ZVAL   =   13.000    mass and valenz                      
   RCORE  =    2.400    outmost cutoff radius                                   
   RWIGS  =    2.400; RWIGS  =    1.270    wigner-seitz radius (au A)           
   ENMAX  =  293.235; ENMIN  =  219.927 eV                                      
   ICORE  =        3    local potential                                         
   LCOR   =        T    correct aug charges                                     
   LPAW   =        T    paw PP                                                  
   EAUG   =  455.659                                                            
   DEXC   =    0.000                                                            
   RMAX   =    2.456    core radius for proj-oper                               
   RAUG   =    1.300    factor for augmentation sphere                          
   RDEP   =    2.451    radius for radial grids                                 
   RDEPT  =    1.956    core radius for aug-charge                              
                                                                                
   Atomic configuration                                                         
   11 entries                                                                   
     n  l   j            E        occ.                                          
     1  0  0.50    -18805.2457   2.0000                                         
     2  0  0.50     -2630.2869   2.0000                                         
     2  1  1.50     -2348.4046   6.0000                                         
     3  0  0.50      -438.8757   2.0000                                         
     3  1  1.50      -346.7588   6.0000                                         
     3  2  2.50      -196.2560  10.0000                                         
     4  0  0.50       -58.3859   2.0000                                         
     5  0  0.50        -3.9816   1.0000                                         
     4  1  1.50       -34.5141   6.0000                                         
     4  2  2.50        -3.0408   4.0000                                         
     4  3  2.50        -1.3606   0.0000                                         
   Description                                                                  
     l       E           TYP  RCUT    TYP  RCUT                                 
     0    -58.3859094     23  2.200                                             
     0     -3.9816262     23  2.200                                             
     1    -34.5140738     23  2.200                                             
     1     13.6058260     23  2.200                                             
     2     -3.0408010     23  2.200                                             
     2     -0.1283038     23  2.200                                             
     3     -1.3605826     23  2.400                                             
  local pseudopotential read in
  partial core-charges read in
  partial kinetic energy density read in
  atomic valenz-charges read in
  non local Contribution for L=           0  read in
    real space projection operators read in
  non local Contribution for L=           0  read in
    real space projection operators read in
  non local Contribution for L=           1  read in
    real space projection operators read in
  non local Contribution for L=           1  read in
    real space projection operators read in
  non local Contribution for L=           2  read in
    real space projection operators read in
  non local Contribution for L=           2  read in
    real space projection operators read in
    PAW grid and wavefunctions read in
 
   number of l-projection  operators is LMAX  =           6
   number of lm-projection operators is LMMAX =          18
 
 POTCAR:    PAW_PBE Ta 17Jan2003                  
   VRHFIN =Ta:  6s5d                                                            
   LEXCH  = PE                                                                  
   EATOM  =   130.6506 eV,    9.6025 Ry                                         
                                                                                
   TITEL  = PAW_PBE Ta 17Jan2003                                                
   LULTRA =        F    use ultrasoft PP ?                                      
   IUNSCR =        1    unscreen: 0-lin 1-nonlin 2-no                           
   RPACOR =    2.330    partial core radius                                     
   POMASS =  180.948; ZVAL   =    5.000    mass and valenz                      
   RCORE  =    2.900    outmost cutoff radius                                   
   RWIGS  =    2.840; RWIGS  =    1.503    wigner-seitz radius (au A)           
   ENMAX  =  223.667; ENMIN  =  167.750 eV                                      
   RCLOC  =    2.205    cutoff for local pot                                    
   LCOR   =        T    correct aug charges                                     
   LPAW   =        T    paw PP                                                  
   EAUG   =  332.075                                                            
   DEXC   =    0.000                                                            
   RMAX   =    2.970    core radius for proj-oper                               
   RAUG   =    1.300    factor for augmentation sphere                          
   RDEP   =    3.060    radius for radial grids                                 
   RDEPT  =    2.354    core radius for aug-charge                              
                                                                                
   Atomic configuration                                                         
   16 entries                                                                   
     n  l   j            E        occ.                                          
     1  0  0.50    -67341.2807   2.0000                                         
     2  0  0.50    -11566.9376   2.0000                                         
     2  1  1.50    -10134.1182   6.0000                                         
     3  0  0.50     -2648.5620   2.0000                                         
     3  1  1.50     -2222.6012   6.0000                                         
     3  2  2.50     -1726.3120  10.0000                                         
     4  0  0.50      -538.6961   2.0000                                         
     4  1  1.50      -399.0129   6.0000                                         
     4  2  2.50      -220.3959  10.0000                                         
     4  3  3.50       -23.0374  14.0000                                         
     5  0  0.50       -71.2901   2.0000                                         
     5  1  1.50       -37.8225   6.0000                                         
     5  2  2.50        -2.6455   4.0000                                         
     6  0  0.50        -4.9623   1.0000                                         
     6  1  1.50        -1.3606   0.0000                                         
     5  3  2.50        -1.3606   0.0000                                         
   Description                                                                  
     l       E           TYP  RCUT    TYP  RCUT                                 
     2     -2.6455043     23  2.500                                             
     2     -0.6258895     23  2.500                                             
     0     -4.9622780     23  2.500                                             
     0      4.7531321     23  2.500                                             
     1     -1.3605826     23  2.900                                             
     1     27.2116520     23  2.900                                             
  local pseudopotential read in
  partial core-charges read in
  partial kinetic energy density read in
  atomic valenz-charges read in
  non local Contribution for L=           2  read in
    real space projection operators read in
  non local Contribution for L=           2  read in
    real space projection operators read in
  non local Contribution for L=           0  read in
    real space projection operators read in
  non local Contribution for L=           0  read in
    real space projection operators read in
  non local Contribution for L=           1  read in
    real space projection operators read in
  non local Contribution for L=           1  read in
    real space projection operators read in
    PAW grid and wavefunctions read in
 
   number of l-projection  operators is LMAX  =           6
   number of lm-projection operators is LMMAX =          18
 
 POTCAR:    PAW_PBE Ti 08Apr2002                  
   VRHFIN =Ti: d3 s1                                                            
   LEXCH  = PE                                                                  
   EATOM  =    94.7928 eV,    6.9671 Ry                                         
                                                                                
   TITEL  = PAW_PBE Ti 08Apr2002                                                
   LULTRA =        F    use ultrasoft PP ?                                      
   IUNSCR =        1    unscreen: 0-lin 1-nonlin 2-no                           
   RPACOR =    2.200    partial core radius                                     
   POMASS =   47.880; ZVAL   =    4.000    mass and valenz                      
   RCORE  =    2.800    outmost cutoff radius                                   
   RWIGS  =    2.500; RWIGS  =    1.323    wigner-seitz radius (au A)           
   ENMAX  =  178.330; ENMIN  =  133.747 eV                                      
   RCLOC  =    2.215    cutoff for local pot                                    
   LCOR   =        T    correct aug charges                                     
   LPAW   =        T    paw PP                                                  
   EAUG   =  328.883                                                            
   DEXC   =    0.000                                                            
   RMAX   =    2.868    core radius for proj-oper                               
   RAUG   =    1.300    factor for augmentation sphere                          
   RDEP   =    2.885    radius for radial grids                                 
   RDEPT  =    2.320    core radius for aug-charge                              
                                                                                
   Atomic configuration                                                         
    9 entries                                                                   
     n  l   j            E        occ.                                          
     1  0  0.50     -4865.3608   2.0000                                         
     2  0  0.50      -533.1367   2.0000                                         
     2  1  1.50      -440.5031   6.0000                                         
     3  0  0.50       -59.3186   2.0000                                         
     3  1  1.50       -35.7012   6.0000                                         
     3  2  2.50        -1.9157   3.0000                                         
     4  0  0.50        -3.7291   1.0000                                         
     4  1  1.50        -4.0817   0.0000                                         
     4  3  2.50        -1.3606   0.0000                                         
   Description                                                                  
     l       E           TYP  RCUT    TYP  RCUT                                 
     2     -1.9156924     23  2.800                                             
     2     -0.4062961     23  2.800                                             
     0     -3.7290832     23  2.800                                             
     0     20.4087390     23  2.800                                             
     1     -5.4423304     23  2.800                                             
  local pseudopotential read in
  partial core-charges read in
  partial kinetic energy density read in
  atomic valenz-charges read in
  non local Contribution for L=           2  read in
    real space projection operators read in
  non local Contribution for L=           2  read in
    real space projection operators read in
  non local Contribution for L=           0  read in
    real space projection operators read in
  non local Contribution for L=           0  read in
    real space projection operators read in
  non local Contribution for L=           1  read in
    real space projection operators read in
    PAW grid and wavefunctions read in
 
   number of l-projection  operators is LMAX  =           5
   number of lm-projection operators is LMMAX =          15
 
 POTCAR:   PAW_PBE Zr 08Apr2002                   
   VRHFIN =Zr: 5s4d5p                                                           
   LEXCH  = PE                                                                  
   EATOM  =    77.8472 eV,    5.7216 Ry                                         
                                                                                
   TITEL  = PAW_PBE Zr 08Apr2002                                                
   LULTRA =        F    use ultrasoft PP ?                                      
   IUNSCR =        1    unscreen: 0-lin 1-nonlin 2-no                           
   RPACOR =    2.200    partial core radius                                     
   POMASS =   91.224; ZVAL   =    4.000    mass and valenz                      
   RCORE  =    3.000    outmost cutoff radius                                   
   RWIGS  =    3.070; RWIGS  =    1.625    wigner-seitz radius (au A)           
   ENMAX  =  154.632; ENMIN  =  115.974 eV                                      
   RCLOC  =    2.213    cutoff for local pot                                    
   LCOR   =        T    correct aug charges                                     
   LPAW   =        T    paw PP                                                  
   EAUG   =  243.217                                                            
   DEXC   =    -.082                                                            
   RMAX   =    3.708    core radius for proj-oper                               
   RAUG   =    1.300    factor for augmentation sphere                          
   RDEP   =    3.146    radius for radial grids                                 
   QCUT   =   -3.371; QGAM   =    6.742    optimization parameters              
                                                                                
   Description                                                                  
     l     E      TYP  RCUT    TYP  RCUT                                        
     2   .000     23  3.000                                                     
     2   .000     23  3.000                                                     
     0   .000     23  3.000                                                     
     0  2.000     23  3.000                                                     
     1  -.400     23  3.000                                                     
     3   .000      7   .000                                                     
  local pseudopotential read in
  partial core-charges read in
  atomic valenz-charges read in
  non local Contribution for L=           2  read in
    real space projection operators read in
  non local Contribution for L=           2  read in
    real space projection operators read in
  non local Contribution for L=           0  read in
    real space projection operators read in
  non local Contribution for L=           0  read in
    real space projection operators read in
  non local Contribution for L=           1  read in
    real space projection operators read in
    PAW grid and wavefunctions read in
 
   number of l-projection  operators is LMAX  =           5
   number of lm-projection operators is LMMAX =          15
 
 POTCAR:    PAW_PBE O 08Apr2002                   
   VRHFIN =O: s2p4                                                              
   LEXCH  = PE                                                                  
   EATOM  =   432.3788 eV,   31.7789 Ry                                         
                                                                                
   TITEL  = PAW_PBE O 08Apr2002                                                 
   LULTRA =        F    use ultrasoft PP ?                                      
   IUNSCR =        1    unscreen: 0-lin 1-nonlin 2-no                           
   RPACOR =    1.200    partial core radius                                     
   POMASS =   16.000; ZVAL   =    6.000    mass and valenz                      
   RCORE  =    1.520    outmost cutoff radius                                   
   RWIGS  =    1.550; RWIGS  =    0.820    wigner-seitz radius (au A)           
   ENMAX  =  400.000; ENMIN  =  300.000 eV                                      
   ICORE  =        2    local potential                                         
   LCOR   =        T    correct aug charges                                     
   LPAW   =        T    paw PP                                                  
   EAUG   =  605.392                                                            
   DEXC   =    0.000                                                            
   RMAX   =    1.553    core radius for proj-oper                               
   RAUG   =    1.300    factor for augmentation sphere                          
   RDEP   =    1.550    radius for radial grids                                 
   RDEPT  =    1.329    core radius for aug-charge                              
                                                                                
   Atomic configuration                                                         
    4 entries                                                                   
     n  l   j            E        occ.                                          
     1  0  0.50      -514.6923   2.0000                                         
     2  0  0.50       -23.9615   2.0000                                         
     2  1  0.50        -9.0305   4.0000                                         
     3  2  1.50        -9.5241   0.0000                                         
   Description                                                                  
     l       E           TYP  RCUT    TYP  RCUT                                 
     0    -23.9615318     23  1.200                                             
     0     -9.5240782     23  1.200                                             
     1     -9.0304911     23  1.520                                             
     1      8.1634956     23  1.520                                             
     2     -9.5240782      7  1.500                                             
  local pseudopotential read in
  partial core-charges read in
  partial kinetic energy density read in
  kinetic energy density of atom read in
  atomic valenz-charges read in
  non local Contribution for L=           0  read in
    real space projection operators read in
  non local Contribution for L=           0  read in
    real space projection operators read in
  non local Contribution for L=           1  read in
    real space projection operators read in
  non local Contribution for L=           1  read in
    real space projection operators read in
    PAW grid and wavefunctions read in
 
   number of l-projection  operators is LMAX  =           4
   number of lm-projection operators is LMMAX =           8
 

 ----------------------------------------------------------------------------- 
|                                                                             |
|  ADVICE TO THIS USER RUNNING 'VASP/VAMP'   (HEAR YOUR MASTER'S VOICE ...):  |
|                                                                             |
|      You have a (more or less) 'large supercell' and for larger cells       |
|      it might be more efficient to use real space projection opertators     |
|      So try LREAL= Auto  in the INCAR   file.                               |
|      Mind: At the moment your POTCAR file does not contain real space       |
|       projectors, and has to be modified,  BUT if you                       |
|      want to do an extremely  accurate calculation you might also keep the  |
|      reciprocal projection scheme          (i.e. LREAL=.FALSE.)             |
|                                                                             |
 ----------------------------------------------------------------------------- 

 WARNING: PSMAXN for non-local potential too small
          PSMAXN should be >   12.5490833729506       NTYP=           5
  PAW_PBE Al 04Jan2001                  :
 energy of atom  1       EATOM=  -53.5387
 kinetic energy error for atom=    0.0002 (will be added to EATOM!!)
  PAW_PBE Nb_sv 25May2007               :
 energy of atom  2       EATOM=-1555.1913
 kinetic energy error for atom=    0.0037 (will be added to EATOM!!)
  PAW_PBE Ta 17Jan2003                  :
 energy of atom  3       EATOM= -130.6506
 kinetic energy error for atom=    0.0004 (will be added to EATOM!!)
  PAW_PBE Ti 08Apr2002                  :
 energy of atom  4       EATOM=  -94.7928
 kinetic energy error for atom=    0.0001 (will be added to EATOM!!)
 PAW_PBE Zr 08Apr2002                   :
 energy of atom  5       EATOM=  -77.8472
 kinetic energy error for atom=    0.0001 (will be added to EATOM!!)
  PAW_PBE O 08Apr2002                   :
 energy of atom  6       EATOM= -432.3788
 kinetic energy error for atom=    0.0168 (will be added to EATOM!!)
 
 
 POSCAR: Al Nb Ta Ti Zr                          
  positions in direct lattice
  velocities in cartesian coordinates
 exchange correlation table for  LEXCH =        8
   RHO(1)=    0.500       N(1)  =     2000
   RHO(2)=  100.500       N(2)  =     4000
 


--------------------------------------------------------------------------------------------------------


 ion  position               nearest neighbor table
   1  0.623  0.867  0.376-  34 2.83  25 2.88  24 2.88   9 2.88  13 2.90   4 2.91  61 2.93  15 3.16
                            41 3.35  17 3.40
   2  0.624  0.391  0.546-  26 2.74  23 2.77  31 2.77  14 2.78  33 2.78   7 2.85  10 2.88  62 2.96
                            18 3.06  17 3.16   3 3.33  42 3.34
   3  0.617  0.639  0.630-  32 2.72  14 2.82   8 2.93  26 2.94  23 2.94  33 2.95  27 3.03  45 3.25
                             2 3.33
   4  0.618  0.084  0.450-  31 2.80  24 2.86  34 2.87  13 2.88   1 2.91  25 2.92   7 2.92  10 2.93
                            62 2.98  12 3.11  28 3.16  46 3.24
   5  0.979  0.640  0.551-  30 2.77  42 2.90  56 2.93  27 2.94  63 3.01  52 3.02  47 3.06  54 3.09
                            59 3.21  58 3.22  57 3.28
   6  0.980  0.121  0.378-  29 2.80  28 2.80  53 2.91  41 2.96  51 3.05  55 3.05  60 3.08  57 3.37

   7  0.729  0.343  0.458-  28 2.77  29 2.83  31 2.85   2 2.85  17 2.89  11 2.90   4 2.92  62 3.01
                            63 3.07  42 3.08
   8  0.726  0.900  0.618-  30 2.57  32 2.68  12 2.71  27 2.78  18 2.83   3 2.93  64 3.07  62 3.14

   9  0.517  0.608  0.367-  35 2.84  15 2.85  17 2.87   1 2.88  11 2.89  61 2.95  43 3.10
  10  0.514  0.136  0.540-  36 2.76  18 2.77  16 2.83   2 2.88  12 2.90   4 2.93  31 2.93  46 2.96
                            62 3.08  44 3.15
  11  0.618  0.343  0.369-  24 2.75  34 2.83  31 2.87   9 2.89   7 2.90  61 2.96  43 3.27
  12  0.621  0.875  0.536-  13 2.66  32 2.70   8 2.71  25 2.79  23 2.83  10 2.90  62 2.93  33 2.96
                             4 3.11  44 3.35
  13  0.742  0.843  0.462-  12 2.66  17 2.87   4 2.88   1 2.90  30 2.91  28 2.94  63 2.98  23 3.00
                            41 3.05  57 3.27  62 3.46
  14  0.745  0.409  0.626-  27 2.72   2 2.78  42 2.81   3 2.82  18 2.87  64 2.97  58 3.08
  15  0.394  0.847  0.369-  22 2.68  19 2.76  25 2.83  34 2.84   9 2.85  39 2.98   1 3.16  46 3.43

  16  0.389  0.370  0.546-  21 2.65  26 2.69  20 2.76  10 2.83  33 2.84  37 2.93  40 2.96  31 3.00

  17  0.619  0.602  0.458-  25 2.81  31 2.85  23 2.85  33 2.85   9 2.87  13 2.87   7 2.89  61 2.95
                            35 3.03   2 3.16   1 3.40  63 3.44
  18  0.629  0.161  0.622-  26 2.70  10 2.77  62 2.79   8 2.83  14 2.87  32 2.89   2 3.06  36 3.15
                            64 3.23
  19  0.279  0.834  0.451-  15 2.76  35 2.94  46 2.96  39 2.97  25 2.99  44 3.00  60 3.07  51 3.08
                            47 3.12  56 3.22  21 3.26
  20  0.276  0.357  0.629-  69 1.99  67 2.16  16 2.76  36 2.90  52 2.95  48 3.04  40 3.10  26 3.15
                            45 3.17  59 3.20
  21  0.282  0.599  0.536-  16 2.65  35 2.86  44 2.94  33 3.00  52 3.01  37 3.02  47 3.03  45 3.04
                            56 3.11  19 3.26  59 3.31
  22  0.283  0.077  0.361-  15 2.68  46 2.97  43 2.97  34 2.99  51 3.02  55 3.10  60 3.10
  23  0.736  0.631  0.542-  30 2.77   2 2.77  27 2.81  12 2.83  17 2.85   3 2.94  42 2.97  63 2.98
                            13 3.00
  24  0.740  0.115  0.366-  29 2.73  11 2.75  28 2.85   4 2.86   1 2.88  41 3.00
  25  0.496  0.836  0.458-  35 2.78  12 2.79  17 2.81  15 2.83   1 2.88   4 2.92  44 2.95  19 2.99
                            46 2.99  33 3.10
  26  0.504  0.379  0.625-  16 2.69  18 2.70   2 2.74  36 2.89   3 2.94  45 3.11  20 3.15
  27  0.837  0.660  0.630-  68 2.15  14 2.72   8 2.78  58 2.80  23 2.81  30 2.93   5 2.94  54 3.01
                             3 3.03
  28  0.847  0.110  0.455-  62 2.76   7 2.77   6 2.80  24 2.85  57 2.90  13 2.94  53 2.98  29 3.15
                             4 3.16  50 3.18  41 3.36
  29  0.852  0.349  0.376-  24 2.73   6 2.80   7 2.83  53 2.94  61 2.98  49 3.07  28 3.15  63 3.25

  30  0.853  0.865  0.551-   8 2.57  23 2.77   5 2.77  54 2.87  13 2.91  27 2.93  57 2.95  62 3.01
                            50 3.10
  31  0.522  0.339  0.461-   2 2.77   4 2.80  17 2.85   7 2.85  35 2.86  11 2.87  10 2.93  46 2.95
                            16 3.00  43 3.11
  32  0.531  0.893  0.623-  65 2.00   8 2.68  12 2.70   3 2.72  36 2.77  18 2.89  44 2.98  45 3.11

  33  0.499  0.621  0.541-   2 2.78  16 2.84  17 2.85  35 2.87  44 2.93   3 2.95  12 2.96  21 3.00
                            45 3.02  25 3.10
  34  0.499  0.102  0.365-  11 2.83   1 2.83  15 2.84   4 2.87  43 2.91  46 2.98  22 2.99
  35  0.400  0.580  0.451-  25 2.78   9 2.84  31 2.86  21 2.86  33 2.87  37 2.88  39 2.93  19 2.94
                            17 3.03  43 3.08
  36  0.402  0.115  0.623-  67 2.04  65 2.19  10 2.76  32 2.77  26 2.89  20 2.90  38 2.93  40 2.95
                            18 3.15  44 3.16
  37  0.255  0.366  0.464-  35 2.88  16 2.93  47 3.02  21 3.02  60 3.04  43 3.05  55 3.08  46 3.08
                            52 3.19  40 3.21  39 3.39
  38  0.241  0.915  0.626-  65 2.04  67 2.12  56 2.82  36 2.93  44 2.94  40 3.02  59 3.04  48 3.11
                            45 3.19  54 3.39
  39  0.252  0.614  0.376-  35 2.93  19 2.97  15 2.98  47 3.07  43 3.07  51 3.07  55 3.08  37 3.39
                            49 3.53
  40  0.249  0.135  0.548-  67 2.46  36 2.95  16 2.96  38 3.02  60 3.07  44 3.08  52 3.09  20 3.10
                            46 3.18  56 3.19  37 3.21  48 3.24  50 3.51
  41  0.865  0.859  0.370-   6 2.96  24 3.00  61 3.05  13 3.05  57 3.06  49 3.12   1 3.35  28 3.36
                            51 3.49  63 3.53
  42  0.866  0.384  0.545-  14 2.81   5 2.90  23 2.97  62 3.01   7 3.08  58 3.10  63 3.11  50 3.13
                            53 3.17   2 3.34  64 3.37  52 3.51
  43  0.381  0.352  0.373-  34 2.91  22 2.97  37 3.05  39 3.07  35 3.08   9 3.10  31 3.11  55 3.26
                            11 3.27  46 3.29
  44  0.379  0.872  0.546-  65 2.42  33 2.93  21 2.94  38 2.94  25 2.95  32 2.98  19 3.00  40 3.08
                            10 3.15  36 3.16  45 3.19  12 3.35  46 3.35  56 3.36
  45  0.382  0.651  0.633-  69 2.13  65 2.28  33 3.02  21 3.04  32 3.11  26 3.11  20 3.17  44 3.19
                            38 3.19   3 3.25  59 3.30
  46  0.384  0.104  0.456-  31 2.95  10 2.96  19 2.96  22 2.97  34 2.98  25 2.99  37 3.08  40 3.18
                             4 3.24  60 3.27  43 3.29  44 3.35  15 3.43
  47  0.117  0.611  0.465-  37 3.02  21 3.03   5 3.06  39 3.07  19 3.12  56 3.12  53 3.14  49 3.15
                            57 3.17  52 3.27  63 3.42  51 3.52  55 3.80
  48  0.099  0.167  0.638-  66 2.08  67 2.19  50 3.04  20 3.04  38 3.11  54 3.15  52 3.16  58 3.18
                            40 3.24  64 3.28
  49  0.996  0.593  0.368-  63 3.05  29 3.07  41 3.12  47 3.15  51 3.16  55 3.23  53 3.44  39 3.53
                            61 3.65  57 3.82
  50  0.995  0.115  0.543-  48 3.04  30 3.10  42 3.13  57 3.15  64 3.16  28 3.18  56 3.22  52 3.23
                            53 3.23  54 3.25  60 3.31  40 3.51  62 3.55
  51  0.119  0.872  0.375-  60 3.00  22 3.02   6 3.05  39 3.07  19 3.08  57 3.16  49 3.16  41 3.49
                            47 3.52
  52  0.120  0.398  0.557-  20 2.95  21 3.01   5 3.02  59 3.09  40 3.09  48 3.16  37 3.19  58 3.23
                            50 3.23  47 3.27  53 3.38  42 3.51
  53  1.000  0.331  0.453-   6 2.91  29 2.94  28 2.98  60 3.06  63 3.08  55 3.09  47 3.14  42 3.17
                            50 3.23  52 3.38  49 3.44
  54  0.996  0.875  0.627-  68 2.20  30 2.87  27 3.01  56 3.03   5 3.09  59 3.09  48 3.15  64 3.22
                            50 3.25  38 3.39
  55  0.145  0.332  0.368-   6 3.05  37 3.08  39 3.08  53 3.09  22 3.10  49 3.23  60 3.24  43 3.26
                            47 3.80
  56  0.135  0.845  0.543-  38 2.82   5 2.93  54 3.03  57 3.05  21 3.11  47 3.12  40 3.19  19 3.22
                            50 3.22  59 3.24  44 3.36  60 3.47
  57  0.979  0.876  0.465-  28 2.90  30 2.95  56 3.05  41 3.06  63 3.11  60 3.13  50 3.15  51 3.16
                            47 3.17  13 3.27   5 3.28   6 3.37  49 3.82
  58  0.965  0.438  0.644-  66 2.09  68 2.19  27 2.80  59 3.08  14 3.08  42 3.10  64 3.11  48 3.18
                             5 3.22  52 3.23
  59  0.142  0.631  0.633-  69 2.13  68 2.30  38 3.04  58 3.08  52 3.09  54 3.09  20 3.20   5 3.21
                            56 3.24  45 3.30  21 3.31
  60  0.147  0.092  0.451-  51 3.00  37 3.04  53 3.06  19 3.07  40 3.07   6 3.08  22 3.10  57 3.13
                            55 3.24  46 3.27  50 3.31  56 3.47
  61  0.731  0.606  0.367-   1 2.93  17 2.95   9 2.95  11 2.96  29 2.98  41 3.05  63 3.17  49 3.65

  62  0.738  0.131  0.538-  28 2.76  18 2.79  12 2.93   2 2.96   4 2.98   7 3.01  42 3.01  30 3.01
                            10 3.08   8 3.14  64 3.19  13 3.46  50 3.55
  63  0.869  0.592  0.458-  13 2.98  23 2.98   5 3.01  49 3.05   7 3.07  53 3.08  42 3.11  57 3.11
                            61 3.17  29 3.25  47 3.42  17 3.44  41 3.53
  64  0.862  0.149  0.635-  66 2.14  14 2.97   8 3.07  58 3.11  50 3.16  62 3.19  54 3.22  18 3.23
                            48 3.28  42 3.37
  65  0.387  0.890  0.634-  32 2.00  38 2.04  36 2.19  45 2.28  44 2.42
  66  0.979  0.240  0.675-  48 2.08  58 2.09  64 2.14
  67  0.257  0.134  0.637-  36 2.04  38 2.12  20 2.16  48 2.19  40 2.46
  68  0.983  0.662  0.656-  27 2.15  58 2.19  54 2.20  59 2.30
  69  0.266  0.536  0.665-  20 1.99  59 2.13  45 2.13
 
  LATTYP: Found a simple orthorhombic cell.
 ALAT       =     9.5644817352
 B/A-ratio  =     1.4398428730
 C/A-ratio  =     2.8922184390
  
  Lattice vectors:
  
 A1 = (   0.0000000000,  -9.5644817352,   0.0000000000)
 A2 = ( -13.7713508606,   0.0000000000,   0.0000000000)
 A3 = (   0.0000000000,   0.0000000000, -27.6625704340)


Analysis of symmetry for initial positions (statically):
=====================================================================
 Subroutine PRICEL returns:
 Original cell was already a primitive cell.
 

 Routine SETGRP: Setting up the symmetry group for a 
 simple orthorhombic supercell.


 Subroutine GETGRP returns: Found  1 space group operations
 (whereof  1 operations were pure point group operations)
 out of a pool of  8 trial point group operations.


The static configuration has the point symmetry C_1 .


Analysis of symmetry for dynamics (positions and initial velocities):
=====================================================================
 Subroutine PRICEL returns:
 Original cell was already a primitive cell.
 

 Routine SETGRP: Setting up the symmetry group for a 
 simple orthorhombic supercell.


 Subroutine GETGRP returns: Found  1 space group operations
 (whereof  1 operations were pure point group operations)
 out of a pool of  8 trial point group operations.


The dynamic configuration has the point symmetry C_1 .


Analysis of constrained symmetry for selective dynamics:
=====================================================================
 Subroutine PRICEL returns:
 Original cell was already a primitive cell.
 

 Routine SETGRP: Setting up the symmetry group for a 
 simple orthorhombic supercell.


 Subroutine GETGRP returns: Found  1 space group operations
 (whereof  1 operations were pure point group operations)
 out of a pool of  8 trial point group operations.


The constrained configuration has the point symmetry C_1 .


 Subroutine INISYM returns: Found  1 space group operations
 (whereof  1 operations are pure point group operations),
 and found     1 'primitive' translations

 
 
 KPOINTS: k-points                                

Automatic generation of k-mesh.
Space group operators:
 irot       det(A)        alpha          n_x          n_y          n_z        tau_x        tau_y        tau_z
    1     1.000000     0.000000     1.000000     0.000000     0.000000     0.000000     0.000000     0.000000
 
 Subroutine IBZKPT returns following result:
 ===========================================
 
 Found      5 irreducible k-points:
 
 Following reciprocal coordinates:
            Coordinates               Weight
  0.000000  0.000000  0.000000      1.000000
  0.333333  0.000000  0.000000      2.000000
  0.000000  0.333333  0.000000      2.000000
  0.333333  0.333333  0.000000      2.000000
 -0.333333  0.333333  0.000000      2.000000
 
 Following cartesian coordinates:
            Coordinates               Weight
  0.000000  0.000000  0.000000      1.000000
  0.024205  0.000000  0.000000      2.000000
  0.000000  0.034851  0.000000      2.000000
  0.024205  0.034851  0.000000      2.000000
 -0.024205  0.034851  0.000000      2.000000
 


--------------------------------------------------------------------------------------------------------




 Dimension of arrays:
   k-points           NKPTS =      5   k-points in BZ     NKDIM =      5   number of bands    NBANDS=    224
   number of dos      NEDOS =    301   number of ions     NIONS =     69
   non local maximal  LDIM  =      6   non local SUM 2l+1 LMDIM =     18
   total plane-waves  NPLWV = 846720
   max r-space proj   IRMAX =      1   max aug-charges    IRDMAX=  25433
   dimension x,y,z NGX =    84 NGY =   60 NGZ =  168
   dimension x,y,z NGXF=   168 NGYF=  120 NGZF=  336
   support grid    NGXF=   168 NGYF=  120 NGZF=  336
   ions per type =               6  10   4  18  26   5
 NGX,Y,Z   is equivalent  to a cutoff of  10.14, 10.43, 10.10 a.u.
 NGXF,Y,Z  is equivalent  to a cutoff of  20.28, 20.86, 20.19 a.u.


 I would recommend the setting:
   dimension x,y,z NGX =    83 NGY =   57 NGZ =  166
 SYSTEM =  (110) surface                           
 POSCAR =  Al Nb Ta Ti Zr                          

 Startparameter for this run:
   NWRITE =      2    write-flag & timer
   PREC   = normal    normal or accurate (medium, high low for compatibility)
   ISTART =      0    job   : 0-new  1-cont  2-samecut
   ICHARG =      2    charge: 1-file 2-atom 10-const
   ISPIN  =      1    spin polarized calculation?
   LNONCOLLINEAR =      F non collinear calculations
   LSORBIT =      F    spin-orbit coupling
   INIWAV =      1    electr: 0-lowe 1-rand  2-diag
   LASPH  =      F    aspherical Exc in radial PAW
   METAGGA=      F    non-selfconsistent MetaGGA calc.

 Electronic Relaxation 1
   ENCUT  =  600.0 eV  44.10 Ry    6.64 a.u.  27.50 19.10 55.25*2*pi/ulx,y,z
   ENINI  =  600.0     initial cutoff
   ENAUG  =  605.4 eV  augmentation charge cutoff
   NELM   =     60;   NELMIN=  2; NELMDL= -5     # of ELM steps 
   EDIFF  = 0.1E-03   stopping-criterion for ELM
   LREAL  =      F    real-space projection
   NLSPLINE    = F    spline interpolate recip. space projectors
   LCOMPAT=      F    compatible to vasp.4.4
   GGA_COMPAT  = T    GGA compatible to vasp.4.4-vasp.4.6
   LMAXPAW     = -100 max onsite density
   LMAXMIX     =    2 max onsite mixed and CHGCAR
   VOSKOWN=      0    Vosko Wilk Nusair interpolation
   ROPT   =    0.00000   0.00000   0.00000   0.00000
   ROPT   =    0.00000   0.00000
 Ionic relaxation
   EDIFFG = -.1E-01   stopping-criterion for IOM
   NSW    =    150    number of steps for IOM
   NBLOCK =      1;   KBLOCK =    150    inner block; outer block 
   IBRION =      2    ionic relax: 0-MD 1-quasi-New 2-CG
   NFREE  =      1    steps in history (QN), initial steepest desc. (CG)
   ISIF   =      2    stress and relaxation
   IWAVPR =     11    prediction:  0-non 1-charg 2-wave 3-comb
   ISYM   =      2    0-nonsym 1-usesym 2-fastsym
   LCORR  =      T    Harris-Foulkes like correction to forces

   POTIM  = 0.1000    time-step for ionic-motion
   TEIN   =    0.0    initial temperature
   TEBEG  =    0.0;   TEEND  =   0.0 temperature during run
   SMASS  =  -3.00    Nose mass-parameter (am)
   estimated Nose-frequenzy (Omega)   =  0.10E-29 period in steps =****** mass=  -0.433E-26a.u.
   SCALEE = 1.0000    scale energy and forces
   NPACO  =    256;   APACO  = 16.0  distance and # of slots for P.C.
   PSTRESS=    0.0 pullay stress

  Mass of Ions in am
   POMASS =  26.98 92.91180.95 47.88 91.22 16.00
  Ionic Valenz
   ZVAL   =   3.00 13.00  5.00  4.00  4.00  6.00
  Atomic Wigner-Seitz radii
   RWIGS  =  -1.00 -1.00 -1.00 -1.00 -1.00 -1.00
  virtual crystal weights 
   VCA    =   1.00  1.00  1.00  1.00  1.00  1.00
   NELECT =     374.0000    total number of electrons
   NUPDOWN=      -1.0000    fix difference up-down

 DOS related values:
   EMIN   =  10.00;   EMAX   =-10.00  energy-range for DOS
   EFERMI =   0.00
   ISMEAR =     2;   SIGMA  =   0.10  broadening in eV -4-tet -1-fermi 0-gaus

 Electronic relaxation 2 (details)
   IALGO  =     68    algorithm
   LDIAG  =      T    sub-space diagonalisation (order eigenvalues)
   LSUBROT=      F    optimize rotation matrix (better conditioning)
   TURBO    =      0    0=normal 1=particle mesh
   IRESTART =      0    0=no restart 2=restart with 2 vectors
   NREBOOT  =      0    no. of reboots
   NMIN     =      0    reboot dimension
   EREF     =   0.00    reference energy to select bands
   IMIX   =      4    mixing-type and parameters
     AMIX     =   0.40;   BMIX     =  1.00
     AMIX_MAG =   1.60;   BMIX_MAG =  1.00
     AMIN     =   0.10
     WC   =   100.;   INIMIX=   1;  MIXPRE=   1;  MAXMIX= -45

 Intra band minimization:
   WEIMIN = 0.0010     energy-eigenvalue tresh-hold
   EBREAK =  0.11E-06  absolut break condition
   DEPER  =   0.30     relativ break condition  

   TIME   =   0.40     timestep for ELM

  volume/ion in A,a.u.               =      52.81       356.35
  Fermi-wavevector in a.u.,A,eV,Ry     =   0.766517  1.448507  7.994083  0.587548
  Thomas-Fermi vector in A             =   1.866873
 
 Write flags
   LWAVE  =      F    write WAVECAR
   LCHARG =      F    write CHGCAR
   LVTOT  =      F    write LOCPOT, total local potential
   LVHAR  =      F    write LOCPOT, Hartree potential only
   LELF   =      F    write electronic localiz. function (ELF)
   LORBIT =      0    0 simple, 1 ext, 2 COOP (PROOUT)


 Dipole corrections
   LMONO  =      F    monopole corrections only (constant potential shift)
   LDIPOL =      F    correct potential (dipole corrections)
   IDIPOL =      0    1-x, 2-y, 3-z, 4-all directions 
   EPSILON=  1.0000000 bulk dielectric constant

 Exchange correlation treatment:
   GGA     =    --    GGA type
   LEXCH   =     8    internal setting for exchange type
   VOSKOWN=      0    Vosko Wilk Nusair interpolation
   LHFCALC =     F    Hartree Fock is set to
   LHFONE  =     F    Hartree Fock one center treatment
   AEXX    =    0.0000 exact exchange contribution

 Linear response parameters
   LEPSILON=     F    determine dielectric tensor
   LRPA    =     F    only Hartree local field effects (RPA)
   LNABLA  =     F    use nabla operator in PAW spheres
   LVEL    =     F    velocity operator in full k-point grid
   LINTERFAST=   F  fast interpolation
   KINTER  =     0    interpolate to denser k-point grid
   CSHIFT  =0.1000    complex shift for real part using Kramers Kronig
   OMEGAMAX=  -1.0    maximum frequency
   DEG_THRESHOLD= 0.2000000E-02 threshold for treating states as degnerate
   RTIME   =    0.100 relaxation time in fs

 Orbital magnetization related:
   ORBITALMAG=     F  switch on orbital magnetization
   LCHIMAG   =     F  perturbation theory with respect to B field
   DQ        =  0.001000  dq finite difference perturbation B field



--------------------------------------------------------------------------------------------------------


 conjugate gradient relaxation of ions
   using selective dynamics as specified on POSCAR
 charge density and potential will be updated during run
 non-spin polarized calculation
 RMM-DIIS sequential band-by-band and
  variant of blocked Davidson during initial phase
 perform sub-space diagonalisation
    before iterative eigenvector-optimisation
 modified Broyden-mixing scheme, WC =      100.0
 initial mixing is a Kerker type mixing with AMIX =  0.4000 and BMIX =      1.0000
 Hartree-type preconditioning will be used
 using additional bands           37
 reciprocal scheme for non local part
 use partial core corrections
 calculate Harris-corrections to forces 
   (improved forces if not selfconsistent)
 use gradient corrections 
 use of overlap-Matrix (Vanderbilt PP)
 Methfessel and Paxton  Order N= 2 SIGMA  =   0.10


--------------------------------------------------------------------------------------------------------


  energy-cutoff  :      600.00
  volume of cell :     3643.60
      direct lattice vectors                 reciprocal lattice vectors
    13.771350861  0.000000000  0.000000000     0.072614518  0.000000000  0.000000000
     0.000000000  9.564481735  0.000000000     0.000000000  0.104553496  0.000000000
     0.000000000  0.000000000 27.662570434     0.000000000  0.000000000  0.036149931

  length of vectors
    13.771350861  9.564481735 27.662570434     0.072614518  0.104553496  0.036149931


 
 k-points in units of 2pi/SCALE and weight: k-points                                
   0.00000000  0.00000000  0.00000000       0.111
   0.02420484  0.00000000  0.00000000       0.222
   0.00000000  0.03485117  0.00000000       0.222
   0.02420484  0.03485117  0.00000000       0.222
  -0.02420484  0.03485117  0.00000000       0.222
 
 k-points in reciprocal lattice and weights: k-points                                
   0.00000000  0.00000000  0.00000000       0.111
   0.33333333  0.00000000  0.00000000       0.222
   0.00000000  0.33333333  0.00000000       0.222
   0.33333333  0.33333333  0.00000000       0.222
  -0.33333333  0.33333333  0.00000000       0.222
 
 position of ions in fractional coordinates (direct lattice) 
   0.62276447  0.86746430  0.37590333
   0.62390074  0.39142381  0.54557949
   0.61735339  0.63853903  0.63045315
   0.61839700  0.08363760  0.44965952
   0.97870066  0.63950371  0.55087416
   0.97963780  0.12056648  0.37767599
   0.72857308  0.34338307  0.45816820
   0.72562343  0.90017521  0.61843467
   0.51739597  0.60805875  0.36719826
   0.51410383  0.13593865  0.54025187
   0.61811078  0.34297293  0.36889183
   0.62073556  0.87524564  0.53607030
   0.74231148  0.84345710  0.46199300
   0.74515814  0.40901019  0.62575172
   0.39405298  0.84738672  0.36896032
   0.38870518  0.37007877  0.54638052
   0.61928761  0.60162497  0.45752798
   0.62851416  0.16080896  0.62208618
   0.27944195  0.83362269  0.45088327
   0.27573020  0.35694181  0.62875915
   0.28242788  0.59930359  0.53640034
   0.28324246  0.07725573  0.36149931
   0.73614341  0.63133580  0.54203202
   0.74002355  0.11549973  0.36646499
   0.49591756  0.83582580  0.45790018
   0.50401959  0.37895590  0.62470098
   0.83686556  0.66027332  0.62974258
   0.84724605  0.11017048  0.45460239
   0.85243583  0.34907103  0.37639265
   0.85269389  0.86520475  0.55130285
   0.52175105  0.33942658  0.46105252
   0.53129580  0.89299036  0.62257116
   0.49942254  0.62051854  0.54143375
   0.49943882  0.10200214  0.36464270
   0.40016663  0.58028412  0.45130253
   0.40206587  0.11506861  0.62272803
   0.25505811  0.36595738  0.46399110
   0.24082550  0.91529761  0.62641074
   0.25182599  0.61397660  0.37627308
   0.24919453  0.13498282  0.54828473
   0.86539888  0.85904646  0.37036829
   0.86630978  0.38434355  0.54459649
   0.38059813  0.35186696  0.37331264
   0.37855620  0.87177394  0.54642637
   0.38182195  0.65138009  0.63278102
   0.38408008  0.10357511  0.45579618
   0.11657381  0.61110574  0.46457054
   0.09941550  0.16681373  0.63814000
   0.99629861  0.59295863  0.36811234
   0.99492056  0.11478020  0.54310392
   0.11869311  0.87196302  0.37467704
   0.11989069  0.39800840  0.55699125
   0.99977952  0.33051389  0.45306987
   0.99600027  0.87513537  0.62659036
   0.14482272  0.33176249  0.36788561
   0.13520127  0.84500122  0.54255161
   0.97888047  0.87608504  0.46520830
   0.96531199  0.43757799  0.64363017
   0.14247724  0.63126330  0.63324855
   0.14721048  0.09173214  0.45072276
   0.73135245  0.60578495  0.36679988
   0.73789544  0.13051813  0.53803074
   0.86923259  0.59196168  0.45825814
   0.86169535  0.14911880  0.63531141
   0.38748953  0.88959765  0.63357836
   0.97874343  0.24018150  0.67545921
   0.25705496  0.13389467  0.63715729
   0.98347957  0.66179067  0.65605848
   0.26649005  0.53560405  0.66499736
 
 position of ions in cartesian coordinates  (Angst):
   8.57630799  8.29684649 10.39845223
   8.59195600  3.74376587 15.09213115
   8.50179016  6.10729491 17.43995460
   8.51616202  0.79995025 12.43873821
  13.47803011  6.11652156 15.23859513
  13.49093588  1.15315590 10.44748880
  10.03343557  3.28428114 12.67411000
   9.99281490  8.60970935 17.10749274
   7.12524148  5.81576681 10.15764776
   7.07990417  1.30018271 14.94475536
   8.51222037  3.28035836 10.20449636
   8.54836724  8.37127099 14.82908245
  10.22263181  8.06723005 12.77991378
  10.26183420  3.91197046 17.30990116
   5.42664188  8.10481479 10.20639088
   5.35299542  3.53961168 15.11428963
   8.52842696  5.75423100 12.65640004
   8.65548902  1.53805441 17.20850283
   3.84829318  7.97316903 12.47259035
   3.79717736  3.41396346 17.39309436
   3.88941343  5.73202821 14.83821224
   3.90063135  0.73891098 10.00000000
  10.13768912  6.03839969 14.99399882
  10.19112400  1.10469510 10.13736353
   6.82945470  7.99424061 12.66669595
   6.94103067  3.62451679 17.28083483
  11.52476922  6.31517214 17.42029847
  11.66772263  1.05372358 12.57547056
  11.73919286  3.33868345 10.41198829
  11.74274675  8.27523498 15.25045388
   7.18521672  3.24643930 12.75389771
   7.31666093  8.54098998 17.22191844
   6.87772299  5.93493829 14.97744925
   6.87794726  0.97559764 10.08695433
   5.51083508  5.55011685 12.48418803
   5.53699010  1.10057161 17.22625807
   3.51249472  3.50019267 12.83518635
   3.31649251  8.75434725 17.32813127
   3.46798404  5.87236796 10.40868071
   3.43174527  1.29104073 15.16696502
  11.91771166  8.21633417 10.24533883
  11.93025591  3.67604687 15.06493878
   5.24135036  3.36542512 10.32678719
   5.21323020  8.33806597 15.11555790
   5.25820401  6.23011298 17.50434950
   5.28930157  0.99064225 12.60849381
   1.60537885  5.84490969 12.85121538
   1.36908573  1.59548689 17.65259283
  13.72037774  5.67134198 10.18293350
  13.70140010  1.09781309 15.02365054
   1.63456451  8.33987442 10.36453009
   1.65105671  3.80674408 15.40780961
  13.76831459  3.16119411 12.53307716
  13.71626911  8.37021622 17.33309986
   1.99440444  3.17313630 10.17666150
   1.86190416  8.08199871 15.00837210
  13.48050634  8.37929939 12.86885734
  13.29365016  4.18520672 17.80446478
   1.96210402  6.03770631 17.51728256
   2.02728715  0.87737042 12.46815015
  10.07171117  5.79401911 10.14662739
  10.16181703  1.24833828 14.88331311
  11.97050705  5.66180669 12.67659812
  11.86670906  1.42624402 17.57434658
   5.33625433  8.50854048 17.52640597
  13.47861912  2.29721154 18.68493799
   3.53999410  1.28063311 17.62540846
  13.54384217  6.32968475 18.14826378
   3.66992795  5.12277513 18.39553642
 


--------------------------------------------------------------------------------------------------------


 k-point  1 :   0.0000 0.0000 0.0000  plane waves:  121663
 k-point  2 :   0.3333 0.0000 0.0000  plane waves:  121577
 k-point  3 :   0.0000 0.3333 0.0000  plane waves:  121622
 k-point  4 :   0.3333 0.3333 0.0000  plane waves:  121647
 k-point  5 :  -0.3333 0.3333 0.0000  plane waves:  121647

 maximum and minimum number of plane-waves per node :      2568     2510

 maximum number of plane-waves:    121663
 maximum index in each direction: 
   IXMAX=   27   IYMAX=   19   IZMAX=   55
   IXMIN=  -27   IYMIN=  -19   IZMIN=  -55

 WARNING: aliasing errors must be expected set NGX to 110 to avoid them
 WARNING: aliasing errors must be expected set NGY to  78 to avoid them
 WARNING: aliasing errors must be expected set NGZ to 222 to avoid them
 aliasing errors are usually negligible using standard VASP settings
 and one can safely disregard these warnings

 parallel 3D FFT for wavefunctions:
    minimum data exchange during FFTs selected (reduces bandwidth)
 parallel 3D FFT for charge:
    minimum data exchange during FFTs selected (reduces bandwidth)


 total amount of memory used by VASP on root node    78030. kBytes
========================================================================

   base      :      30000. kBytes
   nonl-proj :      13755. kBytes
   fftplans  :       3278. kBytes
   grid      :       7939. kBytes
   one-center:         31. kBytes
   wavefun   :      23027. kBytes
 
     INWAV:  cpu time    0.0000: real time    0.0000
 Broyden mixing: mesh for mixing (old mesh)
   NGX = 55   NGY = 39   NGZ =111
  (NGX  =168   NGY  =120   NGZ  =336)
  gives a total of 238095 points

 initial charge density was supplied:
 charge density of overlapping atoms calculated
 number of electron     374.0000000 magnetization 
 keeping initial charge density in first step


--------------------------------------------------------------------------------------------------------


 Maximum index for augmentation-charges         1033 (set IRDMAX)


--------------------------------------------------------------------------------------------------------


 First call to EWALD:  gamma=   0.115
 Maximum number of real-space cells 3x 4x 2
 Maximum number of reciprocal cells 3x 2x 5

 FEWALD executed in parallel
    FEWALD:  cpu time    0.0022: real time    0.0022


----------------------------------------- Iteration    1(   1)  ---------------------------------------


    POTLOK:  cpu time    0.0648: real time    0.0658
    SETDIJ:  cpu time    0.0132: real time    0.0140
     EDDAV:  cpu time    9.1400: real time    9.1454
       DOS:  cpu time    0.0015: real time    0.0015
    --------------------------------------------
      LOOP:  cpu time    9.2227: real time    9.2318

 eigenvalue-minimisations  :  2360
 total energy-change (2. order) : 0.4339364E+04  (-0.1372491E+05)
 number of electron     374.0000000 magnetization 
 augmentation part      374.0000000 magnetization 

 Free energy of the ion-electron system (eV)
  ---------------------------------------------------
  alpha Z        PSCENC =       563.70841644
  Ewald energy   TEWEN  =     77816.59582884
  -Hartree energ DENC   =    -97818.40304581
  -exchange      EXHF   =         0.00000000
  -V(xc)+E(xc)   XCENC  =     -2949.54796825
  PAW double counting   =     21172.02850762   -17089.78808170
  entropy T*S    EENTRO =         0.00695794
  eigenvalues    EBANDS =       356.95078813
  atomic energy  EATOM  =     22287.81246318
  Solvation  Ediel_sol  =         0.00000000
  ---------------------------------------------------
  free energy    TOTEN  =      4339.36386639 eV

  energy without entropy =     4339.35690845  energy(sigma->0) =     4339.36212690


--------------------------------------------------------------------------------------------------------




----------------------------------------- Iteration    1(   2)  ---------------------------------------


     EDDAV:  cpu time    9.3404: real time    9.3447
       DOS:  cpu time    0.0014: real time    0.0014
    --------------------------------------------
      LOOP:  cpu time    9.3433: real time    9.3544

 eigenvalue-minimisations  :  2448
 total energy-change (2. order) :-0.3933504E+04  (-0.3822123E+04)
 number of electron     374.0000000 magnetization 
 augmentation part      374.0000000 magnetization 

 Free energy of the ion-electron system (eV)
  ---------------------------------------------------
  alpha Z        PSCENC =       563.70841644
  Ewald energy   TEWEN  =     77816.59582884
  -Hartree energ DENC   =    -97818.40304581
  -exchange      EXHF   =         0.00000000
  -V(xc)+E(xc)   XCENC  =     -2949.54796825
  PAW double counting   =     21172.02850762   -17089.78808170
  entropy T*S    EENTRO =        -0.00948865
  eigenvalues    EBANDS =     -3576.53638897
  atomic energy  EATOM  =     22287.81246318
  Solvation  Ediel_sol  =         0.00000000
  ---------------------------------------------------
  free energy    TOTEN  =       405.86024270 eV

  energy without entropy =      405.86973135  energy(sigma->0) =      405.86261486


--------------------------------------------------------------------------------------------------------




----------------------------------------- Iteration    1(   3)  ---------------------------------------


     EDDAV:  cpu time   14.2593: real time   14.2614
       DOS:  cpu time    0.0013: real time    0.0013
    --------------------------------------------
      LOOP:  cpu time   14.2618: real time   14.2699

 eigenvalue-minimisations  :  4136
 total energy-change (2. order) :-0.9051453E+03  (-0.8805835E+03)
 number of electron     374.0000000 magnetization 
 augmentation part      374.0000000 magnetization 

 Free energy of the ion-electron system (eV)
  ---------------------------------------------------
  alpha Z        PSCENC =       563.70841644
  Ewald energy   TEWEN  =     77816.59582884
  -Hartree energ DENC   =    -97818.40304581
  -exchange      EXHF   =         0.00000000
  -V(xc)+E(xc)   XCENC  =     -2949.54796825
  PAW double counting   =     21172.02850762   -17089.78808170
  entropy T*S    EENTRO =         0.00177664
  eigenvalues    EBANDS =     -4481.69297926
  atomic energy  EATOM  =     22287.81246318
  Solvation  Ediel_sol  =         0.00000000
  ---------------------------------------------------
  free energy    TOTEN  =      -499.28508229 eV

  energy without entropy =     -499.28685893  energy(sigma->0) =     -499.28552645


--------------------------------------------------------------------------------------------------------




----------------------------------------- Iteration    1(   4)  ---------------------------------------


     EDDAV:  cpu time   12.5989: real time   12.6047
       DOS:  cpu time    0.0014: real time    0.0014
    --------------------------------------------
      LOOP:  cpu time   12.6014: real time   12.6139

 eigenvalue-minimisations  :  3576
 total energy-change (2. order) :-0.1227546E+03  (-0.1184316E+03)
 number of electron     374.0000000 magnetization 
 augmentation part      374.0000000 magnetization 

 Free energy of the ion-electron system (eV)
  ---------------------------------------------------
  alpha Z        PSCENC =       563.70841644
  Ewald energy   TEWEN  =     77816.59582884
  -Hartree energ DENC   =    -97818.40304581
  -exchange      EXHF   =         0.00000000
  -V(xc)+E(xc)   XCENC  =     -2949.54796825
  PAW double counting   =     21172.02850762   -17089.78808170
  entropy T*S    EENTRO =         0.00010098
  eigenvalues    EBANDS =     -4604.44587628
  atomic energy  EATOM  =     22287.81246318
  Solvation  Ediel_sol  =         0.00000000
  ---------------------------------------------------
  free energy    TOTEN  =      -622.03965498 eV

  energy without entropy =     -622.03975596  energy(sigma->0) =     -622.03968022


--------------------------------------------------------------------------------------------------------




----------------------------------------- Iteration    1(   5)  ---------------------------------------


     EDDAV:  cpu time   14.4608: real time   14.4700
       DOS:  cpu time    0.0013: real time    0.0013
    CHARGE:  cpu time    0.2106: real time    0.2115
    MIXING:  cpu time    0.0051: real time    0.0051
    --------------------------------------------
      LOOP:  cpu time   14.6789: real time   14.6949

 eigenvalue-minimisations  :  4216
 total energy-change (2. order) :-0.1498809E+02  (-0.1462342E+02)
 number of electron     373.9999984 magnetization 
 augmentation part       44.6125041 magnetization 

 Broyden mixing:
  rms(total) = 0.63862E+01    rms(broyden)= 0.63862E+01
  rms(prec ) = 0.69538E+01
  weight for this iteration     100.00

 Free energy of the ion-electron system (eV)
  ---------------------------------------------------
  alpha Z        PSCENC =       563.70841644
  Ewald energy   TEWEN  =     77816.59582884
  -Hartree energ DENC   =    -97818.40304581
  -exchange      EXHF   =         0.00000000
  -V(xc)+E(xc)   XCENC  =     -2949.54796825
  PAW double counting   =     21172.02850762   -17089.78808170
  entropy T*S    EENTRO =        -0.00490133
  eigenvalues    EBANDS =     -4619.42896073
  atomic energy  EATOM  =     22287.81246318
  Solvation  Ediel_sol  =         0.00000000
  ---------------------------------------------------
  free energy    TOTEN  =      -637.02774173 eV

  energy without entropy =     -637.02284041  energy(sigma->0) =     -637.02651640


--------------------------------------------------------------------------------------------------------




----------------------------------------- Iteration    1(   6)  ---------------------------------------


    POTLOK:  cpu time    0.0492: real time    0.0492
    SETDIJ:  cpu time    0.0065: real time    0.0065
    EDDIAG:  cpu time    0.8555: real time    0.8576
  RMM-DIIS:  cpu time    9.2114: real time    9.2117
    ORTHCH:  cpu time    0.2332: real time    0.2420
       DOS:  cpu time    0.0014: real time    0.0014
    CHARGE:  cpu time    0.2084: real time    0.2084
    MIXING:  cpu time    0.0031: real time    0.0031
    --------------------------------------------
      LOOP:  cpu time   10.5706: real time   10.5879

 eigenvalue-minimisations  :  3646
 total energy-change (2. order) :-0.4661761E+02  (-0.1476241E+03)
 number of electron     373.9999981 magnetization 
 augmentation part       60.3323030 magnetization 

 Broyden mixing:
  rms(total) = 0.43422E+01    rms(broyden)= 0.43421E+01
  rms(prec ) = 0.56114E+01
  weight for this iteration     100.00

 eigenvalues of (default mixing * dielectric matrix)
  average eigenvalue GAMMA=   0.7241
  0.7241

 Free energy of the ion-electron system (eV)
  ---------------------------------------------------
  alpha Z        PSCENC =       563.70841644
  Ewald energy   TEWEN  =     77816.59582884
  -Hartree energ DENC   =    -98553.50937251
  -exchange      EXHF   =         0.00000000
  -V(xc)+E(xc)   XCENC  =     -2931.68419537
  PAW double counting   =     25008.39318753   -20927.21289106
  entropy T*S    EENTRO =         0.01888123
  eigenvalues    EBANDS =     -3947.76766960
  atomic energy  EATOM  =     22287.81246318
  Solvation  Ediel_sol  =         0.00000000
  ---------------------------------------------------
  free energy    TOTEN  =      -683.64535131 eV

  energy without entropy =     -683.66423254  energy(sigma->0) =     -683.65007162


--------------------------------------------------------------------------------------------------------




----------------------------------------- Iteration    1(   7)  ---------------------------------------


    POTLOK:  cpu time    0.0487: real time    0.0487
    SETDIJ:  cpu time    0.0062: real time    0.0062
    EDDIAG:  cpu time    0.8497: real time    0.8529
  RMM-DIIS:  cpu time    6.2453: real time    6.2454
    ORTHCH:  cpu time    0.2404: real time    0.2423
       DOS:  cpu time    0.0015: real time    0.0015
    CHARGE:  cpu time    0.2065: real time    0.2065
    MIXING:  cpu time    0.0019: real time    0.0019
    --------------------------------------------
      LOOP:  cpu time    7.6015: real time    7.6137

 eigenvalue-minimisations  :  2450
 total energy-change (2. order) : 0.9184558E+02  (-0.3424755E+02)
 number of electron     373.9999991 magnetization 
 augmentation part       52.1117442 magnetization 

 Broyden mixing:
  rms(total) = 0.32094E+01    rms(broyden)= 0.32094E+01
  rms(prec ) = 0.46410E+01
  weight for this iteration     100.00

 eigenvalues of (default mixing * dielectric matrix)
  average eigenvalue GAMMA=   0.7216
  1.0858  0.3573

 Free energy of the ion-electron system (eV)
  ---------------------------------------------------
  alpha Z        PSCENC =       563.70841644
  Ewald energy   TEWEN  =     77816.59582884
  -Hartree energ DENC   =    -98136.86505849
  -exchange      EXHF   =         0.00000000
  -V(xc)+E(xc)   XCENC  =     -2933.89108620
  PAW double counting   =     25454.20101265   -21386.03774207
  entropy T*S    EENTRO =         0.02054436
  eigenvalues    EBANDS =     -4257.34414992
  atomic energy  EATOM  =     22287.81246318
  Solvation  Ediel_sol  =         0.00000000
  ---------------------------------------------------
  free energy    TOTEN  =      -591.79977121 eV

  energy without entropy =     -591.82031557  energy(sigma->0) =     -591.80490730


--------------------------------------------------------------------------------------------------------




----------------------------------------- Iteration    1(   8)  ---------------------------------------


    POTLOK:  cpu time    0.0486: real time    0.0486
    SETDIJ:  cpu time    0.0063: real time    0.0063
    EDDIAG:  cpu time    0.8448: real time    0.8470
  RMM-DIIS:  cpu time    8.7709: real time    8.7710
    ORTHCH:  cpu time    0.2312: real time    0.2427
       DOS:  cpu time    0.0014: real time    0.0014
    CHARGE:  cpu time    0.2065: real time    0.2065
    MIXING:  cpu time    0.0020: real time    0.0020
    --------------------------------------------
      LOOP:  cpu time   10.1133: real time   10.1328

 eigenvalue-minimisations  :  3470
 total energy-change (2. order) :-0.2818815E+02  (-0.1813084E+02)
 number of electron     373.9999985 magnetization 
 augmentation part       51.2191072 magnetization 

 Broyden mixing:
  rms(total) = 0.31392E+01    rms(broyden)= 0.31392E+01
  rms(prec ) = 0.59180E+01
  weight for this iteration     100.00

 eigenvalues of (default mixing * dielectric matrix)
  average eigenvalue GAMMA=   0.6436
  1.2813  0.3974  0.2521

 Free energy of the ion-electron system (eV)
  ---------------------------------------------------
  alpha Z        PSCENC =       563.70841644
  Ewald energy   TEWEN  =     77816.59582884
  -Hartree energ DENC   =    -98237.59770435
  -exchange      EXHF   =         0.00000000
  -V(xc)+E(xc)   XCENC  =     -2933.11847075
  PAW double counting   =     26272.67081528   -22205.84880523
  entropy T*S    EENTRO =        -0.01140281
  eigenvalues    EBANDS =     -4184.19905968
  atomic energy  EATOM  =     22287.81246318
  Solvation  Ediel_sol  =         0.00000000
  ---------------------------------------------------
  free energy    TOTEN  =      -619.98791907 eV

  energy without entropy =     -619.97651626  energy(sigma->0) =     -619.98506837


--------------------------------------------------------------------------------------------------------




----------------------------------------- Iteration    1(   9)  ---------------------------------------


    POTLOK:  cpu time    0.0486: real time    0.0486
    SETDIJ:  cpu time    0.0061: real time    0.0061
    EDDIAG:  cpu time    0.8595: real time    0.8660
  RMM-DIIS:  cpu time    8.9034: real time    8.9035
    ORTHCH:  cpu time    0.2349: real time    0.2420
       DOS:  cpu time    0.0015: real time    0.0015
    CHARGE:  cpu time    0.2068: real time    0.2068
    MIXING:  cpu time    0.0021: real time    0.0021
    --------------------------------------------
      LOOP:  cpu time   10.2644: real time   10.2842

 eigenvalue-minimisations  :  3524
 total energy-change (2. order) : 0.5170887E+02  (-0.6714251E+01)
 number of electron     373.9999985 magnetization 
 augmentation part       49.5557535 magnetization 

 Broyden mixing:
  rms(total) = 0.18229E+01    rms(broyden)= 0.18229E+01
  rms(prec ) = 0.22919E+01
  weight for this iteration     100.00

 eigenvalues of (default mixing * dielectric matrix)
  average eigenvalue GAMMA=   0.6326
  1.5171  0.4212  0.4212  0.1708

 Free energy of the ion-electron system (eV)
  ---------------------------------------------------
  alpha Z        PSCENC =       563.70841644
  Ewald energy   TEWEN  =     77816.59582884
  -Hartree energ DENC   =    -98263.13750829
  -exchange      EXHF   =         0.00000000
  -V(xc)+E(xc)   XCENC  =     -2931.34825281
  PAW double counting   =     26799.15137528   -22729.85597629
  entropy T*S    EENTRO =        -0.00469282
  eigenvalues    EBANDS =     -4111.20070116
  atomic energy  EATOM  =     22287.81246318
  Solvation  Ediel_sol  =         0.00000000
  ---------------------------------------------------
  free energy    TOTEN  =      -568.27904762 eV

  energy without entropy =     -568.27435480  energy(sigma->0) =     -568.27787442


--------------------------------------------------------------------------------------------------------




----------------------------------------- Iteration    1(  10)  ---------------------------------------


    POTLOK:  cpu time    0.0488: real time    0.0489
    SETDIJ:  cpu time    0.0061: real time    0.0061
    EDDIAG:  cpu time    0.8552: real time    0.8579
  RMM-DIIS:  cpu time    8.3786: real time    8.3787
    ORTHCH:  cpu time    0.2366: real time    0.2424
       DOS:  cpu time    0.0015: real time    0.0015
    CHARGE:  cpu time    0.2067: real time    0.2067
    MIXING:  cpu time    0.0021: real time    0.0021
    --------------------------------------------
      LOOP:  cpu time    9.7375: real time    9.7523

 eigenvalue-minimisations  :  3274
 total energy-change (2. order) : 0.8490947E+01  (-0.2874382E+01)
 number of electron     373.9999987 magnetization 
 augmentation part       51.4052739 magnetization 

 Broyden mixing:
  rms(total) = 0.10352E+01    rms(broyden)= 0.10352E+01
  rms(prec ) = 0.12279E+01
  weight for this iteration     100.00

 eigenvalues of (default mixing * dielectric matrix)
  average eigenvalue GAMMA=   0.6516
  1.6308  0.5709  0.5709  0.3135  0.1722

 Free energy of the ion-electron system (eV)
  ---------------------------------------------------
  alpha Z        PSCENC =       563.70841644
  Ewald energy   TEWEN  =     77816.59582884
  -Hartree energ DENC   =    -98321.00579581
  -exchange      EXHF   =         0.00000000
  -V(xc)+E(xc)   XCENC  =     -2927.77244306
  PAW double counting   =     27416.97193608   -23342.15424175
  entropy T*S    EENTRO =        -0.00094345
  eigenvalues    EBANDS =     -4053.94332145
  atomic energy  EATOM  =     22287.81246318
  Solvation  Ediel_sol  =         0.00000000
  ---------------------------------------------------
  free energy    TOTEN  =      -559.78810098 eV

  energy without entropy =     -559.78715753  energy(sigma->0) =     -559.78786512


--------------------------------------------------------------------------------------------------------




----------------------------------------- Iteration    1(  11)  ---------------------------------------


    POTLOK:  cpu time    0.0488: real time    0.0488
    SETDIJ:  cpu time    0.0061: real time    0.0061
    EDDIAG:  cpu time    0.8555: real time    0.8593
  RMM-DIIS:  cpu time    9.0236: real time    9.0236
    ORTHCH:  cpu time    0.2410: real time    0.2425
       DOS:  cpu time    0.0015: real time    0.0015
    CHARGE:  cpu time    0.2241: real time    0.2241
    MIXING:  cpu time    0.0023: real time    0.0023
    --------------------------------------------
      LOOP:  cpu time   10.4042: real time   10.4204

 eigenvalue-minimisations  :  3555
 total energy-change (2. order) :-0.6556971E+00  (-0.2237055E+01)
 number of electron     373.9999987 magnetization 
 augmentation part       52.9354164 magnetization 

 Broyden mixing:
  rms(total) = 0.99771E+00    rms(broyden)= 0.99771E+00
  rms(prec ) = 0.13249E+01
  weight for this iteration     100.00

 eigenvalues of (default mixing * dielectric matrix)
  average eigenvalue GAMMA=   0.6385
  1.6677  0.7029  0.7029  0.3337  0.1682  0.2555

 Free energy of the ion-electron system (eV)
  ---------------------------------------------------
  alpha Z        PSCENC =       563.70841644
  Ewald energy   TEWEN  =     77816.59582884
  -Hartree energ DENC   =    -98341.93982278
  -exchange      EXHF   =         0.00000000
  -V(xc)+E(xc)   XCENC  =     -2925.76446631
  PAW double counting   =     27811.65110004   -23732.90351396
  entropy T*S    EENTRO =        -0.00721873
  eigenvalues    EBANDS =     -4039.59658482
  atomic energy  EATOM  =     22287.81246318
  Solvation  Ediel_sol  =         0.00000000
  ---------------------------------------------------
  free energy    TOTEN  =      -560.44379810 eV

  energy without entropy =     -560.43657936  energy(sigma->0) =     -560.44199341


--------------------------------------------------------------------------------------------------------




----------------------------------------- Iteration    1(  12)  ---------------------------------------


    POTLOK:  cpu time    0.0488: real time    0.0488
    SETDIJ:  cpu time    0.0063: real time    0.0063
    EDDIAG:  cpu time    0.8533: real time    0.8570
  RMM-DIIS:  cpu time    8.8609: real time    8.8609
    ORTHCH:  cpu time    0.2372: real time    0.2424
       DOS:  cpu time    0.0014: real time    0.0014
    CHARGE:  cpu time    0.2064: real time    0.2064
    MIXING:  cpu time    0.0024: real time    0.0024
    --------------------------------------------
      LOOP:  cpu time   10.2182: real time   10.2334

 eigenvalue-minimisations  :  3510
 total energy-change (2. order) : 0.1926516E+01  (-0.9150207E+00)
 number of electron     373.9999987 magnetization 
 augmentation part       52.5904305 magnetization 

 Broyden mixing:
  rms(total) = 0.54250E+00    rms(broyden)= 0.54250E+00
  rms(prec ) = 0.71570E+00
  weight for this iteration     100.00

 eigenvalues of (default mixing * dielectric matrix)
  average eigenvalue GAMMA=   0.6530
  1.7759  1.0171  0.5223  0.5223  0.3361  0.1700  0.2270

 Free energy of the ion-electron system (eV)
  ---------------------------------------------------
  alpha Z        PSCENC =       563.70841644
  Ewald energy   TEWEN  =     77816.59582884
  -Hartree energ DENC   =    -98378.70552703
  -exchange      EXHF   =         0.00000000
  -V(xc)+E(xc)   XCENC  =     -2924.64088584
  PAW double counting   =     28080.55527485   -23999.25011643
  entropy T*S    EENTRO =        -0.00612828
  eigenvalues    EBANDS =     -4004.58660818
  atomic energy  EATOM  =     22287.81246318
  Solvation  Ediel_sol  =         0.00000000
  ---------------------------------------------------
  free energy    TOTEN  =      -558.51728243 eV

  energy without entropy =     -558.51115416  energy(sigma->0) =     -558.51575036


--------------------------------------------------------------------------------------------------------




----------------------------------------- Iteration    1(  13)  ---------------------------------------


    POTLOK:  cpu time    0.0490: real time    0.0490
    SETDIJ:  cpu time    0.0062: real time    0.0062
    EDDIAG:  cpu time    0.8553: real time    0.8583
  RMM-DIIS:  cpu time    9.1590: real time    9.1590
    ORTHCH:  cpu time    0.2286: real time    0.2422
       DOS:  cpu time    0.0015: real time    0.0015
    CHARGE:  cpu time    0.2085: real time    0.2085
    MIXING:  cpu time    0.0025: real time    0.0025
    --------------------------------------------
      LOOP:  cpu time   10.5121: real time   10.5352

 eigenvalue-minimisations  :  3598
 total energy-change (2. order) : 0.1829923E+00  (-0.5688769E+00)
[...]


    CHARGE:  cpu time    0.2062: real time    0.2062
    FORLOC:  cpu time    0.0199: real time    0.0199
    FORNL :  cpu time    8.9236: real time    8.9236
    STRESS:  cpu time    7.6284: real time    7.6285
    FORCOR:  cpu time    0.0732: real time    0.0732
    FORHAR:  cpu time    0.0322: real time    0.0322
    MIXING:  cpu time    0.0023: real time    0.0023
    OFIELD:  cpu time    0.0000: real time    0.0000

  FORCE on cell =-STRESS in cart. coord.  units (eV):
  Direction    XX          YY          ZZ          XY          YZ          ZX
  --------------------------------------------------------------------------------------
  Alpha Z   563.70842   563.70842   563.70842
  Ewald   85552.30121 89821.22933-97556.99910  -814.58045   -13.10501   264.79426
  Hartree 90389.81709 94443.12500-86353.38297  -650.23253   -32.29551   266.50188
  E(xc)   -1594.78605 -1596.30514 -1583.55394     0.41427    -0.95867     0.16569
  Local  ************************179870.27544  1463.10197    48.88653  -533.00992
  n-local  -126.41932  -124.42621  -165.43853     8.59047     1.01670     1.23603
  augment   468.01120   469.08367   464.51493    -1.54565     0.02973     0.02585
  Kinetic  4716.37370  4699.83741  4744.53837   -10.01990     1.87380    -0.86613
  Fock        0.00000     0.00000     0.00000     0.00000     0.00000     0.00000
  -------------------------------------------------------------------------------------
  Total     -35.91106   -29.23210   -16.33737    -4.27180     5.44757    -1.15235
  in kB     -15.79095   -12.85405    -7.18393    -1.87841     2.39543    -0.50671
  external pressure =      -11.94 kB  Pullay stress =        0.00 kB


 VOLUME and BASIS-vectors are now :
 -----------------------------------------------------------------------------
  energy-cutoff  :      600.00
  volume of cell :     3643.60
      direct lattice vectors                 reciprocal lattice vectors
    13.771350861  0.000000000  0.000000000     0.072614518  0.000000000  0.000000000
     0.000000000  9.564481735  0.000000000     0.000000000  0.104553496  0.000000000
     0.000000000  0.000000000 27.662570434     0.000000000  0.000000000  0.036149931

  length of vectors
    13.771350861  9.564481735 27.662570434     0.072614518  0.104553496  0.036149931


 FORCES acting on ions
    electron-ion (+dipol)            ewald-force                    non-local-force                 convergence-correction
 -----------------------------------------------------------------------------------------------
   -.467E+02 -.337E+02 0.395E+03   0.465E+02 0.334E+02 -.394E+03   0.885E-01 0.673E-01 -.799E+00   -.960E-02 -.458E-02 0.462E-02
   -.153E+02 -.348E+02 -.112E+03   0.154E+02 0.348E+02 0.112E+03   -.832E-01 -.265E-01 -.888E-01   -.948E-02 -.379E-03 0.956E-02
   0.335E+02 0.190E+02 -.378E+03   -.331E+02 -.186E+02 0.377E+03   -.439E+00 -.410E+00 0.111E+01   -.554E-02 -.897E-02 0.362E-03
   0.220E+01 0.403E+01 0.215E+03   -.228E+01 -.393E+01 -.214E+03   0.763E-01 -.213E+00 -.783E+00   -.103E-01 0.480E-03 0.112E-01
   -.563E+02 0.603E+01 -.635E+02   0.560E+02 -.569E+01 0.631E+02   0.232E+00 -.345E+00 0.441E+00   0.355E-02 -.213E-02 0.153E-02
   -.456E+02 0.457E+01 0.339E+03   0.449E+02 -.398E+01 -.337E+03   0.649E+00 -.101E+01 -.229E+01   0.134E-01 -.887E-03 0.324E-02
   -.367E+03 -.898E+01 0.536E+03   0.367E+03 0.971E+01 -.538E+03   0.242E+00 -.350E+00 0.865E+00   -.279E-01 0.140E-01 0.563E-01
   -.250E+03 0.368E+01 -.159E+04   0.248E+03 -.288E+01 0.158E+04   0.127E+01 -.805E+00 0.342E+01   -.810E-02 0.629E-02 0.625E-02
   0.996E+02 -.737E+01 0.169E+04   -.992E+02 0.631E+01 -.168E+04   -.531E+00 0.615E+00 -.432E+01   -.375E-01 0.318E-03 0.274E-01
   0.150E+03 -.135E+02 -.307E+03   -.150E+03 0.137E+02 0.308E+03   0.250E+00 -.251E+00 -.136E+01   -.222E-01 0.309E-01 0.231E-01
   -.526E+02 0.136E+03 0.176E+04   0.534E+02 -.136E+03 -.176E+04   -.481E+00 -.412E+00 -.276E+01   -.531E-01 0.249E-01 0.254E-01
   0.943E+02 0.126E+03 -.302E+03   -.935E+02 -.126E+03 0.303E+03   -.790E+00 0.243E+00 -.381E+00   -.188E-01 0.111E-02 0.113E-01
   -.414E+03 0.686E+01 0.812E+03   0.415E+03 -.796E+01 -.812E+03   -.752E+00 0.133E+01 -.142E+01   -.168E-01 -.122E-01 0.380E-01
   -.802E+02 -.106E+02 -.144E+04   0.811E+02 0.103E+02 0.144E+04   -.870E+00 0.301E+00 0.273E+01   -.385E-01 -.588E-02 0.673E-02
   0.293E+03 -.115E+03 0.160E+04   -.293E+03 0.115E+03 -.160E+04   0.258E+00 -.392E+00 -.419E+01   -.281E-01 0.363E-02 0.217E-01
   0.303E+03 -.136E+03 -.355E+03   -.303E+03 0.135E+03 0.356E+03   0.265E+00 0.447E+00 -.870E+00   0.969E-02 0.105E-01 0.176E-01
   -.112E+02 0.339E+01 0.208E+03   0.106E+02 -.336E+01 -.208E+03   0.542E+00 -.242E+00 0.551E-01   -.144E-01 -.232E-02 0.133E-01
   -.114E+02 -.374E+02 -.640E+03   0.111E+02 0.370E+02 0.638E+03   0.234E+00 0.390E+00 0.244E+01   -.102E-01 0.156E-01 0.254E-02
   0.170E+03 -.510E+01 0.205E+03   -.169E+03 0.497E+01 -.206E+03   -.151E+01 0.615E+00 0.415E+00   0.303E-02 -.164E-02 0.370E-02
   0.776E+02 -.659E+01 -.529E+03   -.767E+02 0.793E+01 0.525E+03   -.905E+00 -.134E+01 0.361E+01   0.141E-01 0.212E-02 -.692E-02
   0.120E+03 -.535E+02 -.650E+02   -.120E+03 0.535E+02 0.648E+02   -.131E+00 0.265E-01 0.199E+00   0.600E-02 -.706E-02 -.197E-02
   0.116E+03 -.557E+02 0.490E+03   -.114E+03 0.558E+02 -.487E+03   -.845E+00 -.235E+00 -.265E+01   -.584E-03 0.103E-02 0.703E-02
   -.886E+02 0.595E+02 -.122E+03   0.886E+02 -.593E+02 0.122E+03   0.293E-01 -.280E+00 0.293E+00   -.725E-02 -.370E-02 0.621E-02
   -.993E+02 0.595E+02 0.542E+03   0.987E+02 -.590E+02 -.539E+03   0.459E+00 -.512E+00 -.274E+01   -.567E-02 -.284E-02 0.340E-02
   0.782E+02 -.103E+02 0.187E+03   -.791E+02 0.976E+01 -.187E+03   0.852E+00 0.719E+00 -.416E+00   -.982E-02 -.296E-02 0.664E-02
   0.114E+01 -.434E+02 -.518E+03   -.189E+01 0.433E+02 0.516E+03   0.750E+00 0.878E-01 0.228E+01   -.268E-02 -.487E-03 -.133E-02
   -.459E+02 -.684E+01 -.433E+03   0.455E+02 0.667E+01 0.430E+03   0.414E+00 0.176E+00 0.271E+01   -.231E-02 -.429E-02 0.321E-02
   -.161E+03 0.671E+01 0.217E+03   0.161E+03 -.643E+01 -.218E+03   0.259E+00 -.432E+00 0.325E+00   0.532E-02 -.265E-03 0.161E-01
   -.149E+03 -.578E+01 0.500E+03   0.148E+03 0.568E+01 -.497E+03   0.690E+00 -.308E-01 -.247E+01   0.841E-02 0.637E-02 0.568E-02
   -.187E+03 -.479E+01 -.119E+03   0.186E+03 0.481E+01 0.119E+03   0.439E+00 -.218E-01 0.519E+00   0.373E-04 -.136E-02 0.450E-02
   0.840E+02 -.175E+01 0.194E+03   -.842E+02 0.220E+01 -.194E+03   0.140E-01 -.739E-01 -.705E-01   -.129E-01 0.330E-02 0.126E-01
   0.325E+02 0.380E+02 -.513E+03   -.319E+02 -.378E+02 0.511E+03   -.615E+00 -.204E+00 0.193E+01   -.445E-02 0.167E-02 0.137E-04
   0.498E+02 -.761E+00 -.140E+03   -.504E+02 0.100E+01 0.139E+03   0.634E+00 -.227E+00 0.579E+00   -.757E-02 -.781E-02 0.538E-02
   0.350E+02 -.146E+01 0.521E+03   -.357E+02 0.138E+01 -.519E+03   0.616E+00 0.344E-01 -.249E+01   -.171E-01 -.686E-03 0.653E-02
   0.125E+03 0.116E+02 0.184E+03   -.124E+03 -.119E+02 -.184E+03   -.715E+00 0.599E+00 -.401E+00   -.646E-02 -.407E-02 0.899E-02
   0.112E+02 -.158E+02 -.476E+03   -.965E+01 0.176E+02 0.474E+03   -.151E+01 -.178E+01 0.250E+01   0.555E-02 0.134E-01 -.772E-03
   0.122E+03 0.641E+01 0.211E+03   -.122E+03 -.622E+01 -.211E+03   -.819E-01 -.219E+00 -.507E+00   0.547E-02 0.157E-02 0.586E-02
   0.117E+03 0.541E+02 -.392E+03   -.118E+03 -.552E+02 0.390E+03   0.137E+01 0.110E+01 0.199E+01   0.646E-02 0.169E-02 -.227E-02
   0.125E+03 0.397E+02 0.448E+03   -.125E+03 -.395E+02 -.445E+03   0.148E+00 -.466E+00 -.272E+01   0.349E-02 -.126E-02 0.876E-02
   0.130E+03 0.345E+02 -.562E+02   -.129E+03 -.340E+02 0.559E+02   -.263E+00 -.566E+00 0.335E+00   0.620E-02 0.704E-02 -.289E-02
   -.978E+02 -.979E+00 0.508E+03   0.981E+02 0.960E+00 -.504E+03   -.491E+00 0.467E-01 -.307E+01   0.754E-02 -.492E-02 0.349E-02
   -.139E+03 0.468E+01 -.852E+02   0.138E+03 -.470E+01 0.857E+02   0.453E+00 0.188E-01 -.511E+00   -.431E-03 -.171E-03 0.768E-02
   0.129E+03 0.282E+02 0.474E+03   -.128E+03 -.284E+02 -.471E+03   -.217E+00 0.324E+00 -.252E+01   -.821E-02 -.377E-03 0.101E-01
   0.127E+03 0.363E+02 -.893E+02   -.126E+03 -.360E+02 0.885E+02   -.573E+00 -.259E+00 0.826E+00   -.586E-04 -.211E-02 -.222E-02
   -.301E+01 0.215E+01 -.446E+03   0.216E+01 -.295E+01 0.443E+03   0.842E+00 0.811E+00 0.309E+01   0.544E-02 -.121E-01 -.397E-02
   0.123E+03 -.672E+01 0.229E+03   -.123E+03 0.639E+01 -.229E+03   0.415E+00 0.239E+00 -.560E-01   -.650E-02 0.385E-02 0.517E-02
   0.342E+02 0.359E+01 0.172E+03   -.340E+02 -.344E+01 -.172E+03   -.138E+00 -.222E+00 0.148E+00   0.112E-01 -.316E-02 0.521E-02
   0.167E+02 0.292E+02 -.388E+03   -.181E+02 -.285E+02 0.385E+03   0.134E+01 -.635E+00 0.228E+01   0.237E-02 0.399E-02 -.166E-02
   -.407E+02 -.531E-01 0.462E+03   0.410E+02 0.441E+00 -.458E+03   -.662E-01 -.254E+00 -.282E+01   0.122E-01 0.102E-02 0.445E-02
   -.577E+02 -.271E+01 -.761E+02   0.576E+02 0.228E+01 0.764E+02   0.387E-01 0.425E+00 -.289E+00   0.483E-02 0.269E-02 0.398E-02
   0.509E+02 -.284E+01 0.442E+03   -.510E+02 0.218E+01 -.439E+03   0.276E-01 0.207E+00 -.303E+01   0.114E-01 0.145E-02 0.461E-02
   0.518E+02 -.408E+01 -.103E+03   -.513E+02 0.380E+01 0.104E+03   -.515E+00 0.281E+00 -.710E+00   0.845E-02 0.355E-04 -.134E-02
   -.704E+02 -.348E+01 0.204E+03   0.704E+02 0.368E+01 -.204E+03   0.151E+00 0.183E+00 0.259E+00   0.134E-01 0.140E-02 0.935E-02
   -.512E+02 -.472E+02 -.373E+03   0.517E+02 0.463E+02 0.371E+03   -.567E+00 0.857E+00 0.247E+01   -.318E-03 0.112E-02 0.694E-03
   0.397E+02 0.868E+00 0.457E+03   -.390E+02 -.714E+00 -.453E+03   -.849E+00 -.280E+00 -.324E+01   0.113E-01 -.148E-02 0.716E-02
   0.328E+02 -.450E+00 -.721E+02   -.324E+02 0.578E+00 0.725E+02   -.421E+00 -.126E+00 -.411E+00   0.495E-02 -.201E-02 -.279E-02
   -.936E+02 0.346E+00 0.177E+03   0.932E+02 -.605E+00 -.178E+03   0.538E+00 0.271E+00 0.851E-01   0.920E-02 -.131E-02 0.680E-02
   -.519E+02 -.284E+01 -.407E+03   0.510E+02 0.193E+01 0.405E+03   0.842E+00 0.907E+00 0.223E+01   -.289E-03 -.171E-02 0.111E-03
   0.227E+02 -.311E+02 -.368E+03   -.217E+02 0.313E+02 0.366E+03   -.102E+01 -.157E+00 0.241E+01   0.417E-02 -.545E-02 -.250E-02
   0.502E+02 -.626E+01 0.210E+03   -.494E+02 0.612E+01 -.211E+03   -.729E+00 0.442E+00 -.167E+00   0.111E-01 0.284E-02 0.290E-02
   -.140E+03 -.427E+02 0.537E+03   0.139E+03 0.421E+02 -.534E+03   0.837E+00 0.615E-01 -.326E+01   -.614E-02 0.222E-02 0.438E-02
   -.138E+03 -.430E+02 -.101E+03   0.138E+03 0.425E+02 0.102E+03   0.279E+00 0.490E+00 -.787E+00   -.578E-02 0.362E-02 0.103E-01
   -.153E+03 0.452E+01 0.203E+03   0.152E+03 -.454E+01 -.204E+03   0.646E+00 0.399E+00 0.585E-01   0.333E-02 0.239E-03 0.106E-01
   -.489E+02 0.343E+02 -.421E+03   0.496E+02 -.333E+02 0.418E+03   -.747E+00 -.103E+01 0.233E+01   -.314E-02 0.326E-02 0.166E-02
   0.709E+02 0.589E+02 -.729E+03   -.712E+02 -.590E+02 0.737E+03   0.233E+00 0.457E-01 -.767E+01   -.276E-02 0.575E-02 0.202E-02
   -.364E+02 0.316E+02 -.804E+03   0.356E+02 -.336E+02 0.819E+03   0.812E+00 0.200E+01 -.145E+02   -.905E-02 0.389E-02 -.822E-02
   0.107E+03 0.194E+02 -.700E+03   -.108E+03 -.223E+02 0.708E+03   0.625E+00 0.291E+01 -.751E+01   0.138E-01 0.135E-01 -.310E-02
   -.630E+02 -.318E+02 -.736E+03   0.630E+02 0.340E+02 0.744E+03   0.391E-02 -.215E+01 -.834E+01   0.503E-03 -.108E-01 -.143E-02
   0.375E+02 -.377E+02 -.817E+03   -.384E+02 0.408E+02 0.833E+03   0.853E+00 -.314E+01 -.158E+02   0.129E-01 -.137E-01 -.103E-01
 -----------------------------------------------------------------------------------------------
   -.268E+01 0.138E+01 0.630E+02   -.284E-13 0.185E-12 0.125E-11   0.287E+01 -.144E+01 -.635E+02   -.191E+00 0.617E-01 0.432E+00
 
 
 POSITION                                       TOTAL-FORCE (eV/Angst)
 -----------------------------------------------------------------------------------
      8.57631      8.29685     10.39845        -0.071710     -0.157207     -0.000185
      8.59217      3.74381     15.09217         0.004688      0.000679      0.000517
      8.50164      6.10738     17.43998        -0.002481      0.002496      0.000961
      8.51616      0.79995     12.43874        -0.007145     -0.115748     -0.240063
     13.47791      6.11640     15.23887        -0.002033     -0.003001      0.006048
     13.49094      1.15316     10.44749        -0.038034     -0.419918     -0.065779
     10.03344      3.28428     12.67411         0.018796      0.396332     -0.672594
      9.99292      8.60964     17.10756         0.001284     -0.001976      0.000358
      7.12524      5.81577     10.15765        -0.128528     -0.445821      0.946398
      7.07990      1.30017     14.94481         0.001082     -0.000470     -0.000467
      8.51222      3.28036     10.20450         0.268075      0.022704      0.780979
      8.54832      8.37118     14.82914        -0.000064     -0.000089     -0.000827
     10.22263      8.06723     12.77991         0.209422      0.225124     -0.588030
     10.26205      3.91179     17.30996         0.001271     -0.001963      0.001134
      5.42664      8.10481     10.20639         0.278598      0.104968      0.920291
      5.35307      3.53956     15.11427         0.000880     -0.000454     -0.003406
      8.52843      5.75423     12.65640        -0.002208     -0.214804     -0.016984
      8.65574      1.53770     17.20860         0.005284     -0.007245      0.002595
      3.84829      7.97317     12.47259        -0.500630      0.476161     -0.474858
      3.79706      3.41359     17.39226        -0.002884      0.003951     -0.006163
      3.88935      5.73202     14.83821        -0.001457     -0.000435     -0.000208
      3.90063      0.73891     10.00000         0.517323     -0.199814      0.350375
     10.13739      6.03848     14.99387        -0.005487      0.001708     -0.001645
     10.19112      1.10470     10.13736        -0.207441      0.017772      0.351913
      6.82945      7.99424     12.66670        -0.124501      0.202533     -0.424380
      6.94108      3.62448     17.28077         0.002339     -0.001359     -0.001317
     11.52508      6.31514     17.42061         0.003939     -0.000169      0.005767
     11.66772      1.05372     12.57547        -0.098745     -0.148001     -0.713738
     11.73919      3.33868     10.41199        -0.285701     -0.126436      0.623483
     11.74278      8.27487     15.25038         0.000399     -0.008242     -0.001822
      7.18522      3.24644     12.75390        -0.231468      0.383504     -0.551994
      7.31637      8.54119     17.22189        -0.000208      0.002698     -0.001523
      6.87782      5.93523     14.97751         0.002641      0.005550      0.000772
      6.87795      0.97560     10.08695        -0.052968     -0.040523      0.141544
      5.51084      5.55012     12.48419         0.078303      0.328489     -0.199115
      5.53721      1.10059     17.22642         0.003171      0.000288      0.003502
      3.51249      3.50019     12.83519        -0.071886     -0.021133     -0.252907
      3.31671      8.75423     17.32792         0.005194     -0.001668     -0.005088
      3.46798      5.87237     10.40868         0.058710     -0.243839     -0.077508
      3.43180      1.29106     15.16689         0.001823     -0.001507     -0.002414
     11.91771      8.21633     10.24534        -0.195904      0.022891      0.666869
     11.93028      3.67594     15.06493         0.000254     -0.001967     -0.000099
      5.24135      3.36543     10.32679         0.158575      0.090088      0.185652
      5.21316      8.33795     15.11570        -0.000966     -0.001516      0.001640
      5.25820      6.23005     17.50432        -0.000969     -0.001862      0.001133
      5.28930      0.99064     12.60849         0.058932     -0.081839     -0.331514
      1.60538      5.84491     12.85122         0.074502     -0.074394     -0.504631
      1.36906      1.59545     17.65246        -0.001528     -0.001177     -0.001995
     13.72038      5.67134     10.18293         0.191991      0.134830      0.638824
     13.70140      1.09776     15.02362        -0.000489     -0.001617     -0.001046
      1.63456      8.33987     10.36453        -0.000929     -0.456896      0.183101
      1.65106      3.80665     15.40781        -0.001400     -0.001683     -0.001208
     13.76831      3.16119     12.53308         0.149203      0.381236     -0.239649
     13.71605      8.37029     17.33307        -0.004407      0.001898     -0.001050
      1.99440      3.17314     10.17666        -0.114848     -0.126689      0.695780
      1.86194      8.08201     15.00851        -0.000228      0.000338      0.002757
     13.48051      8.37930     12.86886         0.198989      0.011094     -0.323304
     13.29347      4.18532     17.80447        -0.001099     -0.001438      0.002871
      1.96221      6.03783     17.51712         0.003190      0.002058     -0.001522
      2.02729      0.87737     12.46815        -0.005366      0.308435     -0.447248
     10.07171      5.79402     10.14663         0.123238     -0.579395      0.139055
     10.16182      1.24826     14.88330         0.000686     -0.003464     -0.000727
     11.97051      5.66181     12.67660        -0.267616      0.376974     -0.491995
     11.86657      1.42608     17.57435         0.000118     -0.002089      0.002325
      5.33654      8.50833     17.52631         0.001075     -0.004374     -0.001554
     13.47881      2.29715     18.68514         0.002426      0.000437      0.001076
      3.53998      1.28068     17.62537         0.000320      0.000175     -0.002200
     13.54390      6.32992     18.14838         0.003039      0.002730      0.002607
      3.66998      5.12293     18.39556         0.001571     -0.005920     -0.007571
 -----------------------------------------------------------------------------------
    total drift:                               -0.003942      0.003528     -0.020576


--------------------------------------------------------------------------------------------------------



  FREE ENERGIE OF THE ION-ELECTRON SYSTEM (eV)
  ---------------------------------------------------
  free  energy   TOTEN  =      -557.85671767 eV

  energy  without entropy=     -557.86345146  energy(sigma->0) =     -557.85840112
 
 d Force = 0.3405558E-04[ 0.260E-04, 0.421E-04]  d Energy = 0.6243770E-04-0.284E-04
 d Force =-0.1006098E-01[-0.101E-01,-0.100E-01]  d Ewald  =-0.1006099E-01 0.399E-08


--------------------------------------------------------------------------------------------------------


    POTLOK:  cpu time    0.0590: real time    0.0590


--------------------------------------------------------------------------------------------------------




--------------------------------------------------------------------------------------------------------


  
 reached required accuracy - stopping structural energy minimisation
     LOOP+:  cpu time   41.0831: real time   41.1479
    4ORBIT:  cpu time    0.0000: real time    0.0000

 total amount of memory used by VASP on root node    78030. kBytes
========================================================================

   base      :      30000. kBytes
   nonl-proj :      13755. kBytes
   fftplans  :       3278. kBytes
   grid      :       7939. kBytes
   one-center:         31. kBytes
   wavefun   :      23027. kBytes
 
  
  
 General timing and accounting informations for this job:
 ========================================================
  
                  Total CPU time used (sec):      428.055
                            User time (sec):      420.294
                          System time (sec):        7.761
                         Elapsed time (sec):      428.657
  
                   Maximum memory used (kb):      160620.
                   Average memory used (kb):           0.
  
                          Minor page faults:        41312
                          Major page faults:            0
                 Voluntary context switches:         3527
