 vasp.5.4.4.18Apr17-6-g9f103f2a35 (build Jan 21 2021 13:12:21) complex          
  
 executed on             LinuxIFC date 2021.10.31  20:41:54
 running on   30 total cores
 distrk:  each k-point on   30 cores,    1 groups
 distr:  one band on NCORES_PER_BAND=   1 cores,   30 groups


--------------------------------------------------------------------------------------------------------


 INCAR:
 POTCAR:    PAW_PBE Al 04Jan2001                  
 POTCAR:    PAW_PBE Nb_sv 25May2007               
 POTCAR:    PAW_PBE Ta 17Jan2003                  
 POTCAR:    PAW_PBE Ti 08Apr2002                  
 POTCAR:   PAW_PBE Zr 08Apr2002                   
 POTCAR:    PAW_PBE O 08Apr2002                   

 ----------------------------------------------------------------------------- 
|                                                                             |
|           W    W    AA    RRRRR   N    N  II  N    N   GGGG   !!!           |
|           W    W   A  A   R    R  NN   N  II  NN   N  G    G  !!!           |
|           W    W  A    A  R    R  N N  N  II  N N  N  G       !!!           |
|           W WW W  AAAAAA  RRRRR   N  N N  II  N  N N  G  GGG   !            |
|           WW  WW  A    A  R   R   N   NN  II  N   NN  G    G                |
|           W    W  A    A  R    R  N    N  II  N    N   GGGG   !!!           |
|                                                                             |
|      For optimal performance we recommend to set                            |
|        NCORE= 4 - approx SQRT( number of cores)                             |
|      NCORE specifies how many cores store one orbital (NPAR=cpu/NCORE).     |
|      This setting can  greatly improve the performance of VASP for DFT.     |
|      The default,   NCORE=1            might be grossly inefficient         |
|      on modern multi-core architectures or massively parallel machines.     |
|      Do your own testing !!!!                                               |
|      Unfortunately you need to use the default for GW and RPA calculations. |
|      (for HF NCORE is supported but not extensively tested yet)             |
|                                                                             |
 ----------------------------------------------------------------------------- 

 POTCAR:    PAW_PBE Al 04Jan2001                  
   VRHFIN =Al: s2p1                                                             
   LEXCH  = PE                                                                  
   EATOM  =    53.5387 eV,    3.9350 Ry                                         
                                                                                
   TITEL  = PAW_PBE Al 04Jan2001                                                
   LULTRA =        F    use ultrasoft PP ?                                      
   IUNSCR =        1    unscreen: 0-lin 1-nonlin 2-no                           
   RPACOR =    1.500    partial core radius                                     
   POMASS =   26.981; ZVAL   =    3.000    mass and valenz                      
   RCORE  =    1.900    outmost cutoff radius                                   
   RWIGS  =    2.650; RWIGS  =    1.402    wigner-seitz radius (au A)           
   ENMAX  =  240.300; ENMIN  =  180.225 eV                                      
   ICORE  =        2    local potential                                         
   LCOR   =        T    correct aug charges                                     
   LPAW   =        T    paw PP                                                  
   EAUG   =  291.052                                                            
   DEXC   =    0.000                                                            
   RMAX   =    1.939    core radius for proj-oper                               
   RAUG   =    1.300    factor for augmentation sphere                          
   RDEP   =    1.966    radius for radial grids                                 
   RDEPT  =    1.856    core radius for aug-charge                              
                                                                                
   Atomic configuration                                                         
    6 entries                                                                   
     n  l   j            E        occ.                                          
     1  0  0.50     -1511.1048   2.0000                                         
     2  0  0.50      -108.1629   2.0000                                         
     2  1  1.50       -69.6402   6.0000                                         
     3  0  0.50        -7.7528   2.0000                                         
     3  1  1.50        -2.7121   1.0000                                         
     3  2  2.50        -2.7212   0.0000                                         
   Description                                                                  
     l       E           TYP  RCUT    TYP  RCUT                                 
     0     -7.7528455     23  1.900                                             
     0     -3.3096929     23  1.900                                             
     1     -2.7120682     23  1.900                                             
     1     13.6058260     23  1.900                                             
     2     -2.7211652      7  1.900                                             
  local pseudopotential read in
  partial core-charges read in
  partial kinetic energy density read in
  atomic valenz-charges read in
  non local Contribution for L=           0  read in
    real space projection operators read in
  non local Contribution for L=           0  read in
    real space projection operators read in
  non local Contribution for L=           1  read in
    real space projection operators read in
  non local Contribution for L=           1  read in
    real space projection operators read in
    PAW grid and wavefunctions read in
 
   number of l-projection  operators is LMAX  =           4
   number of lm-projection operators is LMMAX =           8
 
 POTCAR:    PAW_PBE Nb_sv 25May2007               
   VRHFIN =Nb: 4p5s4d                                                           
   LEXCH  = PE                                                                  
   EATOM  =  1555.1913 eV,  114.3033 Ry                                         
                                                                                
   TITEL  = PAW_PBE Nb_sv 25May2007                                             
   LULTRA =        F    use ultrasoft PP ?                                      
   IUNSCR =        1    unscreen: 0-lin 1-nonlin 2-no                           
   RPACOR =    1.800    partial core radius                                     
   POMASS =   92.910; ZVAL   =   13.000    mass and valenz                      
   RCORE  =    2.400    outmost cutoff radius                                   
   RWIGS  =    2.400; RWIGS  =    1.270    wigner-seitz radius (au A)           
   ENMAX  =  293.235; ENMIN  =  219.927 eV                                      
   ICORE  =        3    local potential                                         
   LCOR   =        T    correct aug charges                                     
   LPAW   =        T    paw PP                                                  
   EAUG   =  455.659                                                            
   DEXC   =    0.000                                                            
   RMAX   =    2.456    core radius for proj-oper                               
   RAUG   =    1.300    factor for augmentation sphere                          
   RDEP   =    2.451    radius for radial grids                                 
   RDEPT  =    1.956    core radius for aug-charge                              
                                                                                
   Atomic configuration                                                         
   11 entries                                                                   
     n  l   j            E        occ.                                          
     1  0  0.50    -18805.2457   2.0000                                         
     2  0  0.50     -2630.2869   2.0000                                         
     2  1  1.50     -2348.4046   6.0000                                         
     3  0  0.50      -438.8757   2.0000                                         
     3  1  1.50      -346.7588   6.0000                                         
     3  2  2.50      -196.2560  10.0000                                         
     4  0  0.50       -58.3859   2.0000                                         
     5  0  0.50        -3.9816   1.0000                                         
     4  1  1.50       -34.5141   6.0000                                         
     4  2  2.50        -3.0408   4.0000                                         
     4  3  2.50        -1.3606   0.0000                                         
   Description                                                                  
     l       E           TYP  RCUT    TYP  RCUT                                 
     0    -58.3859094     23  2.200                                             
     0     -3.9816262     23  2.200                                             
     1    -34.5140738     23  2.200                                             
     1     13.6058260     23  2.200                                             
     2     -3.0408010     23  2.200                                             
     2     -0.1283038     23  2.200                                             
     3     -1.3605826     23  2.400                                             
  local pseudopotential read in
  partial core-charges read in
  partial kinetic energy density read in
  atomic valenz-charges read in
  non local Contribution for L=           0  read in
    real space projection operators read in
  non local Contribution for L=           0  read in
    real space projection operators read in
  non local Contribution for L=           1  read in
    real space projection operators read in
  non local Contribution for L=           1  read in
    real space projection operators read in
  non local Contribution for L=           2  read in
    real space projection operators read in
  non local Contribution for L=           2  read in
    real space projection operators read in
    PAW grid and wavefunctions read in
 
   number of l-projection  operators is LMAX  =           6
   number of lm-projection operators is LMMAX =          18
 
 POTCAR:    PAW_PBE Ta 17Jan2003                  
   VRHFIN =Ta:  6s5d                                                            
   LEXCH  = PE                                                                  
   EATOM  =   130.6506 eV,    9.6025 Ry                                         
                                                                                
   TITEL  = PAW_PBE Ta 17Jan2003                                                
   LULTRA =        F    use ultrasoft PP ?                                      
   IUNSCR =        1    unscreen: 0-lin 1-nonlin 2-no                           
   RPACOR =    2.330    partial core radius                                     
   POMASS =  180.948; ZVAL   =    5.000    mass and valenz                      
   RCORE  =    2.900    outmost cutoff radius                                   
   RWIGS  =    2.840; RWIGS  =    1.503    wigner-seitz radius (au A)           
   ENMAX  =  223.667; ENMIN  =  167.750 eV                                      
   RCLOC  =    2.205    cutoff for local pot                                    
   LCOR   =        T    correct aug charges                                     
   LPAW   =        T    paw PP                                                  
   EAUG   =  332.075                                                            
   DEXC   =    0.000                                                            
   RMAX   =    2.970    core radius for proj-oper                               
   RAUG   =    1.300    factor for augmentation sphere                          
   RDEP   =    3.060    radius for radial grids                                 
   RDEPT  =    2.354    core radius for aug-charge                              
                                                                                
   Atomic configuration                                                         
   16 entries                                                                   
     n  l   j            E        occ.                                          
     1  0  0.50    -67341.2807   2.0000                                         
     2  0  0.50    -11566.9376   2.0000                                         
     2  1  1.50    -10134.1182   6.0000                                         
     3  0  0.50     -2648.5620   2.0000                                         
     3  1  1.50     -2222.6012   6.0000                                         
     3  2  2.50     -1726.3120  10.0000                                         
     4  0  0.50      -538.6961   2.0000                                         
     4  1  1.50      -399.0129   6.0000                                         
     4  2  2.50      -220.3959  10.0000                                         
     4  3  3.50       -23.0374  14.0000                                         
     5  0  0.50       -71.2901   2.0000                                         
     5  1  1.50       -37.8225   6.0000                                         
     5  2  2.50        -2.6455   4.0000                                         
     6  0  0.50        -4.9623   1.0000                                         
     6  1  1.50        -1.3606   0.0000                                         
     5  3  2.50        -1.3606   0.0000                                         
   Description                                                                  
     l       E           TYP  RCUT    TYP  RCUT                                 
     2     -2.6455043     23  2.500                                             
     2     -0.6258895     23  2.500                                             
     0     -4.9622780     23  2.500                                             
     0      4.7531321     23  2.500                                             
     1     -1.3605826     23  2.900                                             
     1     27.2116520     23  2.900                                             
  local pseudopotential read in
  partial core-charges read in
  partial kinetic energy density read in
  atomic valenz-charges read in
  non local Contribution for L=           2  read in
    real space projection operators read in
  non local Contribution for L=           2  read in
    real space projection operators read in
  non local Contribution for L=           0  read in
    real space projection operators read in
  non local Contribution for L=           0  read in
    real space projection operators read in
  non local Contribution for L=           1  read in
    real space projection operators read in
  non local Contribution for L=           1  read in
    real space projection operators read in
    PAW grid and wavefunctions read in
 
   number of l-projection  operators is LMAX  =           6
   number of lm-projection operators is LMMAX =          18
 
 POTCAR:    PAW_PBE Ti 08Apr2002                  
   VRHFIN =Ti: d3 s1                                                            
   LEXCH  = PE                                                                  
   EATOM  =    94.7928 eV,    6.9671 Ry                                         
                                                                                
   TITEL  = PAW_PBE Ti 08Apr2002                                                
   LULTRA =        F    use ultrasoft PP ?                                      
   IUNSCR =        1    unscreen: 0-lin 1-nonlin 2-no                           
   RPACOR =    2.200    partial core radius                                     
   POMASS =   47.880; ZVAL   =    4.000    mass and valenz                      
   RCORE  =    2.800    outmost cutoff radius                                   
   RWIGS  =    2.500; RWIGS  =    1.323    wigner-seitz radius (au A)           
   ENMAX  =  178.330; ENMIN  =  133.747 eV                                      
   RCLOC  =    2.215    cutoff for local pot                                    
   LCOR   =        T    correct aug charges                                     
   LPAW   =        T    paw PP                                                  
   EAUG   =  328.883                                                            
   DEXC   =    0.000                                                            
   RMAX   =    2.868    core radius for proj-oper                               
   RAUG   =    1.300    factor for augmentation sphere                          
   RDEP   =    2.885    radius for radial grids                                 
   RDEPT  =    2.320    core radius for aug-charge                              
                                                                                
   Atomic configuration                                                         
    9 entries                                                                   
     n  l   j            E        occ.                                          
     1  0  0.50     -4865.3608   2.0000                                         
     2  0  0.50      -533.1367   2.0000                                         
     2  1  1.50      -440.5031   6.0000                                         
     3  0  0.50       -59.3186   2.0000                                         
     3  1  1.50       -35.7012   6.0000                                         
     3  2  2.50        -1.9157   3.0000                                         
     4  0  0.50        -3.7291   1.0000                                         
     4  1  1.50        -4.0817   0.0000                                         
     4  3  2.50        -1.3606   0.0000                                         
   Description                                                                  
     l       E           TYP  RCUT    TYP  RCUT                                 
     2     -1.9156924     23  2.800                                             
     2     -0.4062961     23  2.800                                             
     0     -3.7290832     23  2.800                                             
     0     20.4087390     23  2.800                                             
     1     -5.4423304     23  2.800                                             
  local pseudopotential read in
  partial core-charges read in
  partial kinetic energy density read in
  atomic valenz-charges read in
  non local Contribution for L=           2  read in
    real space projection operators read in
  non local Contribution for L=           2  read in
    real space projection operators read in
  non local Contribution for L=           0  read in
    real space projection operators read in
  non local Contribution for L=           0  read in
    real space projection operators read in
  non local Contribution for L=           1  read in
    real space projection operators read in
    PAW grid and wavefunctions read in
 
   number of l-projection  operators is LMAX  =           5
   number of lm-projection operators is LMMAX =          15
 
 POTCAR:   PAW_PBE Zr 08Apr2002                   
   VRHFIN =Zr: 5s4d5p                                                           
   LEXCH  = PE                                                                  
   EATOM  =    77.8472 eV,    5.7216 Ry                                         
                                                                                
   TITEL  = PAW_PBE Zr 08Apr2002                                                
   LULTRA =        F    use ultrasoft PP ?                                      
   IUNSCR =        1    unscreen: 0-lin 1-nonlin 2-no                           
   RPACOR =    2.200    partial core radius                                     
   POMASS =   91.224; ZVAL   =    4.000    mass and valenz                      
   RCORE  =    3.000    outmost cutoff radius                                   
   RWIGS  =    3.070; RWIGS  =    1.625    wigner-seitz radius (au A)           
   ENMAX  =  154.632; ENMIN  =  115.974 eV                                      
   RCLOC  =    2.213    cutoff for local pot                                    
   LCOR   =        T    correct aug charges                                     
   LPAW   =        T    paw PP                                                  
   EAUG   =  243.217                                                            
   DEXC   =    -.082                                                            
   RMAX   =    3.708    core radius for proj-oper                               
   RAUG   =    1.300    factor for augmentation sphere                          
   RDEP   =    3.146    radius for radial grids                                 
   QCUT   =   -3.371; QGAM   =    6.742    optimization parameters              
                                                                                
   Description                                                                  
     l     E      TYP  RCUT    TYP  RCUT                                        
     2   .000     23  3.000                                                     
     2   .000     23  3.000                                                     
     0   .000     23  3.000                                                     
     0  2.000     23  3.000                                                     
     1  -.400     23  3.000                                                     
     3   .000      7   .000                                                     
  local pseudopotential read in
  partial core-charges read in
  atomic valenz-charges read in
  non local Contribution for L=           2  read in
    real space projection operators read in
  non local Contribution for L=           2  read in
    real space projection operators read in
  non local Contribution for L=           0  read in
    real space projection operators read in
  non local Contribution for L=           0  read in
    real space projection operators read in
  non local Contribution for L=           1  read in
    real space projection operators read in
    PAW grid and wavefunctions read in
 
   number of l-projection  operators is LMAX  =           5
   number of lm-projection operators is LMMAX =          15
 
 POTCAR:    PAW_PBE O 08Apr2002                   
   VRHFIN =O: s2p4                                                              
   LEXCH  = PE                                                                  
   EATOM  =   432.3788 eV,   31.7789 Ry                                         
                                                                                
   TITEL  = PAW_PBE O 08Apr2002                                                 
   LULTRA =        F    use ultrasoft PP ?                                      
   IUNSCR =        1    unscreen: 0-lin 1-nonlin 2-no                           
   RPACOR =    1.200    partial core radius                                     
   POMASS =   16.000; ZVAL   =    6.000    mass and valenz                      
   RCORE  =    1.520    outmost cutoff radius                                   
   RWIGS  =    1.550; RWIGS  =    0.820    wigner-seitz radius (au A)           
   ENMAX  =  400.000; ENMIN  =  300.000 eV                                      
   ICORE  =        2    local potential                                         
   LCOR   =        T    correct aug charges                                     
   LPAW   =        T    paw PP                                                  
   EAUG   =  605.392                                                            
   DEXC   =    0.000                                                            
   RMAX   =    1.553    core radius for proj-oper                               
   RAUG   =    1.300    factor for augmentation sphere                          
   RDEP   =    1.550    radius for radial grids                                 
   RDEPT  =    1.329    core radius for aug-charge                              
                                                                                
   Atomic configuration                                                         
    4 entries                                                                   
     n  l   j            E        occ.                                          
     1  0  0.50      -514.6923   2.0000                                         
     2  0  0.50       -23.9615   2.0000                                         
     2  1  0.50        -9.0305   4.0000                                         
     3  2  1.50        -9.5241   0.0000                                         
   Description                                                                  
     l       E           TYP  RCUT    TYP  RCUT                                 
     0    -23.9615318     23  1.200                                             
     0     -9.5240782     23  1.200                                             
     1     -9.0304911     23  1.520                                             
     1      8.1634956     23  1.520                                             
     2     -9.5240782      7  1.500                                             
  local pseudopotential read in
  partial core-charges read in
  partial kinetic energy density read in
  kinetic energy density of atom read in
  atomic valenz-charges read in
  non local Contribution for L=           0  read in
    real space projection operators read in
  non local Contribution for L=           0  read in
    real space projection operators read in
  non local Contribution for L=           1  read in
    real space projection operators read in
  non local Contribution for L=           1  read in
    real space projection operators read in
    PAW grid and wavefunctions read in
 
   number of l-projection  operators is LMAX  =           4
   number of lm-projection operators is LMMAX =           8
 

 ----------------------------------------------------------------------------- 
|                                                                             |
|  ADVICE TO THIS USER RUNNING 'VASP/VAMP'   (HEAR YOUR MASTER'S VOICE ...):  |
|                                                                             |
|      You have a (more or less) 'large supercell' and for larger cells       |
|      it might be more efficient to use real space projection opertators     |
|      So try LREAL= Auto  in the INCAR   file.                               |
|      Mind:          For very  accurate calculation you might also keep the  |
|      reciprocal projection scheme          (i.e. LREAL=.FALSE.)             |
|                                                                             |
 ----------------------------------------------------------------------------- 

 WARNING: PSMAXN for non-local potential too small
          PSMAXN should be >   12.5490833729506       NTYP=           5
  PAW_PBE Al 04Jan2001                  :
 energy of atom  1       EATOM=  -53.5387
 kinetic energy error for atom=    0.0002 (will be added to EATOM!!)
  PAW_PBE Nb_sv 25May2007               :
 energy of atom  2       EATOM=-1555.1913
 kinetic energy error for atom=    0.0037 (will be added to EATOM!!)
  PAW_PBE Ta 17Jan2003                  :
 energy of atom  3       EATOM= -130.6506
 kinetic energy error for atom=    0.0004 (will be added to EATOM!!)
  PAW_PBE Ti 08Apr2002                  :
 energy of atom  4       EATOM=  -94.7928
 kinetic energy error for atom=    0.0001 (will be added to EATOM!!)
 PAW_PBE Zr 08Apr2002                   :
 energy of atom  5       EATOM=  -77.8472
 kinetic energy error for atom=    0.0001 (will be added to EATOM!!)
  PAW_PBE O 08Apr2002                   :
 energy of atom  6       EATOM= -432.3788
 kinetic energy error for atom=    0.0168 (will be added to EATOM!!)
 
 
 POSCAR: F   F   FAl Nb Ta Ti Zr                 
  positions in direct lattice
  velocities in cartesian coordinates
 exchange correlation table for  LEXCH =        8
   RHO(1)=    0.500       N(1)  =     2000
   RHO(2)=  100.500       N(2)  =     4000
 


--------------------------------------------------------------------------------------------------------


 ion  position               nearest neighbor table
   1  0.623  0.867  0.376-  34 2.83  25 2.88  24 2.88   9 2.88  13 2.90   4 2.91  61 2.93  15 3.16
                            41 3.35  17 3.40
   2  0.622  0.390  0.546-  31 2.76  14 2.76  23 2.77  26 2.77  33 2.81   7 2.86  10 2.88  62 2.97
                            18 3.05  16 3.15  17 3.17  42 3.34   3 3.34
   3  0.616  0.644  0.628-  32 2.73  14 2.84  23 2.90  33 2.91   8 2.91  27 2.96  26 2.97  45 3.16
                             2 3.34
   4  0.618  0.084  0.450-  31 2.80  24 2.86  34 2.87  13 2.88   1 2.91  10 2.91  25 2.92   7 2.92
                            62 2.99  12 3.13  28 3.16  46 3.24
   5  0.978  0.641  0.555-  30 2.76  27 2.81  42 2.93  56 2.96  54 2.97  52 3.00  59 3.03  58 3.07
                            63 3.10  47 3.15  57 3.34
   6  0.980  0.121  0.378-  29 2.80  28 2.80  53 2.91  41 2.96  51 3.05  55 3.05  60 3.08  57 3.37

   7  0.729  0.343  0.458-  28 2.77  29 2.83  31 2.85   2 2.86  17 2.89  11 2.90   4 2.92  62 3.02
                            63 3.07  42 3.07
   8  0.726  0.904  0.620-  30 2.62  32 2.72  12 2.73  27 2.74  18 2.80   3 2.91  64 3.09  62 3.13

   9  0.517  0.608  0.367-  35 2.84  15 2.85  17 2.87   1 2.88  11 2.89  61 2.95  43 3.10
  10  0.515  0.132  0.540-  18 2.78  36 2.78  16 2.81  12 2.86   2 2.88   4 2.91  31 2.95  46 2.96
                            62 3.08  44 3.14
  11  0.618  0.343  0.369-  24 2.75  34 2.83  31 2.87   9 2.89   7 2.90  61 2.96  43 3.27
  12  0.621  0.875  0.537-  13 2.68  32 2.70   8 2.73  23 2.79  25 2.80  10 2.86  33 2.92  62 2.92
                             4 3.13  44 3.39
  13  0.742  0.843  0.462-  12 2.68  17 2.87  30 2.87   4 2.88   1 2.90  28 2.94  63 2.98  23 2.98
                            41 3.05  57 3.27  62 3.45
  14  0.741  0.408  0.626-  27 2.72   2 2.76  42 2.81  18 2.82   3 2.84  64 2.98  58 3.12
  15  0.394  0.847  0.369-  22 2.68  19 2.76  25 2.83  34 2.84   9 2.85  39 2.98   1 3.16  46 3.43

  16  0.394  0.368  0.542-  21 2.64  20 2.65  26 2.72  10 2.81  33 2.85  31 2.87  37 2.89  40 3.02
                             2 3.15
  17  0.619  0.602  0.458-  23 2.80  25 2.81  33 2.84  31 2.85   9 2.87  13 2.87   7 2.89  61 2.95
                            35 3.03   2 3.17   1 3.40  63 3.44
  18  0.629  0.162  0.622-  26 2.77  10 2.78  62 2.80   8 2.80  14 2.82  32 2.85   2 3.05  36 3.18
                            64 3.27
  19  0.279  0.834  0.451-  15 2.76  35 2.94  46 2.96  39 2.97  25 2.99  44 3.00  60 3.07  51 3.08
                            47 3.12  56 3.20
  20  0.283  0.372  0.621-  67 2.26  16 2.65  36 2.89  26 2.99  21 3.02  52 3.02  40 3.05  45 3.07
                            59 3.07  48 3.15
  21  0.281  0.591  0.542-  16 2.64  59 2.87  45 2.93  52 2.99  35 3.00  44 3.00  20 3.02  33 3.03
                            37 3.06  47 3.12  56 3.16
  22  0.283  0.077  0.361-  15 2.68  46 2.97  43 2.97  34 2.99  51 3.02  55 3.10  60 3.10
  23  0.732  0.632  0.541-  27 2.69   2 2.77  30 2.77  12 2.79  17 2.80   3 2.90  13 2.98  42 2.99
                            63 2.99
  24  0.740  0.115  0.366-  29 2.73  11 2.75  28 2.85   4 2.86   1 2.88  41 3.00
  25  0.496  0.836  0.458-  35 2.78  12 2.80  17 2.81  15 2.83   1 2.88   4 2.92  19 2.99  46 2.99
                            44 2.99  33 3.06
  26  0.500  0.383  0.625-  16 2.72  18 2.77   2 2.77  36 2.87   3 2.97  20 2.99  45 3.03
  27  0.830  0.661  0.625-  23 2.69  14 2.72   8 2.74  58 2.78   5 2.81  30 2.85   3 2.96  54 3.11
                            42 3.47
  28  0.847  0.110  0.455-  62 2.76   7 2.77   6 2.80  24 2.85  57 2.90  13 2.94  53 2.98  29 3.15
                             4 3.16  50 3.22  41 3.36
  29  0.852  0.349  0.376-  24 2.73   6 2.80   7 2.83  53 2.94  61 2.98  49 3.07  28 3.15  63 3.25

  30  0.851  0.864  0.550-   8 2.62   5 2.76  23 2.77  27 2.85  13 2.87  54 2.90  57 2.94  62 2.99
                            50 3.08
  31  0.522  0.339  0.461-   2 2.76   4 2.80  17 2.85   7 2.85  35 2.86  16 2.87  11 2.87  46 2.95
                            10 2.95  43 3.11
  32  0.528  0.901  0.622-  65 2.00  12 2.70   8 2.72   3 2.73  36 2.76  18 2.85  44 2.98  45 3.07

  33  0.500  0.625  0.541-   2 2.81  17 2.84  16 2.85  35 2.86   3 2.91  12 2.92  44 2.93  45 2.95
                            21 3.03  25 3.06
  34  0.499  0.102  0.365-  11 2.83   1 2.83  15 2.84   4 2.87  43 2.91  46 2.98  22 2.99
  35  0.400  0.580  0.451-  25 2.78   9 2.84  31 2.86  33 2.86  37 2.88  39 2.93  19 2.94  21 3.00
                            17 3.03  43 3.08
  36  0.399  0.121  0.622-  67 2.03  65 2.17  32 2.76  10 2.78  26 2.87  38 2.89  20 2.89  40 2.93
                            44 3.17  18 3.18
  37  0.255  0.366  0.464-  35 2.88  16 2.89  47 3.02  60 3.04  43 3.05  21 3.06  55 3.08  46 3.08
                            52 3.13  40 3.22  39 3.39
  38  0.240  0.924  0.628-  65 2.03  67 2.13  56 2.88  36 2.89  44 2.96  40 2.98  59 3.05  48 3.14
                            45 3.28  54 3.34
  39  0.252  0.614  0.376-  35 2.93  19 2.97  15 2.98  47 3.07  43 3.07  51 3.07  55 3.08  37 3.39
                            49 3.53
  40  0.246  0.136  0.549-  67 2.44  36 2.93  38 2.98  16 3.02  20 3.05  60 3.07  44 3.08  52 3.08
                            56 3.15  46 3.22  37 3.22  48 3.22  50 3.48
  41  0.865  0.859  0.370-   6 2.96  24 3.00  61 3.05  13 3.05  57 3.06  49 3.12   1 3.35  28 3.36
                            51 3.49  63 3.53
  42  0.864  0.384  0.545-  14 2.81   5 2.93  23 2.99  62 3.00   7 3.07  58 3.10  63 3.12  50 3.16
                            53 3.20  64 3.33   2 3.34  52 3.43  27 3.47
  43  0.381  0.352  0.373-  34 2.91  22 2.97  37 3.05  39 3.07  35 3.08   9 3.10  31 3.11  55 3.26
                            11 3.27  46 3.29
  44  0.375  0.873  0.547-  65 2.44  33 2.93  38 2.96  32 2.98  25 2.99  19 3.00  21 3.00  40 3.08
                            45 3.13  10 3.14  36 3.17  56 3.31  46 3.35  12 3.39
  45  0.386  0.655  0.631-  65 2.32  21 2.93  33 2.95  26 3.03  20 3.07  32 3.07  44 3.13   3 3.16
                            59 3.25  38 3.28
  46  0.384  0.104  0.456-  31 2.95  10 2.96  19 2.96  22 2.97  34 2.98  25 2.99  37 3.08  40 3.22
                             4 3.24  60 3.27  43 3.29  44 3.35  15 3.43
  47  0.117  0.611  0.465-  37 3.02  39 3.07  21 3.12  19 3.12  56 3.12  53 3.14  49 3.15   5 3.15
                            57 3.17  52 3.18  63 3.42  51 3.52  55 3.80
  48  0.100  0.182  0.639-  66 2.08  67 2.17  50 3.05  38 3.14  20 3.15  52 3.16  58 3.18  40 3.22
                            64 3.25  54 3.26
  49  0.996  0.593  0.368-  63 3.05  29 3.07  41 3.12  47 3.15  51 3.16  55 3.23  53 3.44  39 3.53
                            61 3.65  57 3.82
  50  0.994  0.112  0.545-  48 3.05  30 3.08  64 3.10  54 3.15  57 3.16  42 3.16  52 3.16  56 3.20
                            28 3.22  53 3.29  60 3.36  40 3.48  62 3.53
  51  0.119  0.872  0.375-  60 3.00  22 3.02   6 3.05  39 3.07  19 3.08  57 3.16  49 3.16  41 3.49
                            47 3.52
  52  0.113  0.395  0.552-  21 2.99   5 3.00  20 3.02  59 3.04  40 3.08  37 3.13  48 3.16  50 3.16
                            47 3.18  53 3.20  58 3.31  42 3.43
  53  1.000  0.331  0.453-   6 2.91  29 2.94  28 2.98  60 3.06  63 3.08  55 3.09  47 3.14  42 3.20
                            52 3.20  50 3.29  49 3.44
  54  1.000  0.876  0.625-  30 2.90   5 2.97  56 2.98  27 3.11  59 3.13  50 3.15  64 3.26  48 3.26
                            38 3.34
  55  0.145  0.332  0.368-   6 3.05  37 3.08  39 3.08  53 3.09  22 3.10  49 3.23  60 3.24  43 3.26
                            47 3.80
  56  0.136  0.848  0.542-  38 2.88   5 2.96  54 2.98  59 3.04  57 3.04  47 3.12  40 3.15  21 3.16
                            50 3.20  19 3.20  44 3.31  60 3.43
  57  0.979  0.876  0.465-  28 2.90  30 2.94  56 3.04  41 3.06  63 3.11  60 3.13  51 3.16  50 3.16
                            47 3.17  13 3.27   5 3.34   6 3.37  49 3.82
  58  0.963  0.449  0.643-  66 2.08  27 2.78   5 3.07  42 3.10  14 3.12  64 3.14  48 3.18  59 3.20
                            52 3.31
  59  0.152  0.633  0.622-  21 2.87   5 3.03  56 3.04  52 3.04  38 3.05  20 3.07  54 3.13  58 3.20
                            45 3.25
  60  0.147  0.092  0.451-  51 3.00  37 3.04  53 3.06  19 3.07  40 3.07   6 3.08  22 3.10  57 3.13
                            55 3.24  46 3.27  50 3.36  56 3.43
  61  0.731  0.606  0.367-   1 2.93  17 2.95   9 2.95  11 2.96  29 2.98  41 3.05  63 3.17  49 3.65

  62  0.739  0.130  0.538-  28 2.76  18 2.80  12 2.92   2 2.97   4 2.99  30 2.99  42 3.00   7 3.02
                            10 3.08   8 3.13  64 3.21  13 3.45  50 3.53
  63  0.869  0.592  0.458-  13 2.98  23 2.99  49 3.05   7 3.07  53 3.08   5 3.10  57 3.11  42 3.12
                            61 3.17  29 3.25  47 3.42  17 3.44  41 3.53
  64  0.865  0.154  0.635-  66 2.14  14 2.98   8 3.09  50 3.10  58 3.14  62 3.21  48 3.25  54 3.26
                            18 3.27  42 3.33
  65  0.385  0.897  0.635-  32 2.00  38 2.03  36 2.17  45 2.32  44 2.44
  66  0.978  0.254  0.676-  48 2.08  58 2.08  64 2.14
  67  0.256  0.145  0.637-  36 2.03  38 2.13  48 2.17  20 2.26  40 2.44
 
  LATTYP: Found a simple orthorhombic cell.
 ALAT       =     9.5644817352
 B/A-ratio  =     1.4398428730
 C/A-ratio  =     2.8922184390
  
  Lattice vectors:
  
 A1 = (   0.0000000000,  -9.5644817352,   0.0000000000)
 A2 = ( -13.7713508606,   0.0000000000,   0.0000000000)
 A3 = (   0.0000000000,   0.0000000000, -27.6625704340)


Analysis of symmetry for initial positions (statically):
=====================================================================
 Subroutine PRICEL returns:
 Original cell was already a primitive cell.
 

 Routine SETGRP: Setting up the symmetry group for a 
 simple orthorhombic supercell.


 Subroutine GETGRP returns: Found  1 space group operations
 (whereof  1 operations were pure point group operations)
 out of a pool of  8 trial point group operations.


The static configuration has the point symmetry C_1 .


Analysis of symmetry for dynamics (positions and initial velocities):
=====================================================================
 Subroutine PRICEL returns:
 Original cell was already a primitive cell.
 

 Routine SETGRP: Setting up the symmetry group for a 
 simple orthorhombic supercell.


 Subroutine GETGRP returns: Found  1 space group operations
 (whereof  1 operations were pure point group operations)
 out of a pool of  8 trial point group operations.


The dynamic configuration has the point symmetry C_1 .


Analysis of constrained symmetry for selective dynamics:
=====================================================================
 Subroutine PRICEL returns:
 Original cell was already a primitive cell.
 

 Routine SETGRP: Setting up the symmetry group for a 
 simple orthorhombic supercell.


 Subroutine GETGRP returns: Found  1 space group operations
 (whereof  1 operations were pure point group operations)
 out of a pool of  8 trial point group operations.


The constrained configuration has the point symmetry C_1 .


 Subroutine INISYM returns: Found  1 space group operations
 (whereof  1 operations are pure point group operations),
 and found     1 'primitive' translations

 
 
 KPOINTS: k-points                                

Automatic generation of k-mesh.
Space group operators:
 irot       det(A)        alpha          n_x          n_y          n_z        tau_x        tau_y        tau_z
    1     1.000000     0.000001     1.000000     0.000000     0.000000     0.000000     0.000000     0.000000
 
 Subroutine IBZKPT returns following result:
 ===========================================
 
 Found      5 irreducible k-points:
 
 Following reciprocal coordinates:
            Coordinates               Weight
  0.000000  0.000000  0.000000      1.000000
  0.333333  0.000000  0.000000      2.000000
  0.000000  0.333333  0.000000      2.000000
  0.333333  0.333333  0.000000      2.000000
 -0.333333  0.333333  0.000000      2.000000
 
 Following cartesian coordinates:
            Coordinates               Weight
  0.000000  0.000000  0.000000      1.000000
  0.024205  0.000000  0.000000      2.000000
  0.000000  0.034851  0.000000      2.000000
  0.024205  0.034851  0.000000      2.000000
 -0.024205  0.034851  0.000000      2.000000
 
 
 Subroutine IBZKPT_HF returns following result:
 ==============================================
 
 Found      9 k-points in 1st BZ
 the following      9 k-points will be used (e.g. in the exchange kernel)
 Following reciprocal coordinates:   # in IRBZ
  0.000000  0.000000  0.000000    0.11111111   1 t-inv F
  0.333333  0.000000  0.000000    0.11111111   2 t-inv F
  0.000000  0.333333  0.000000    0.11111111   3 t-inv F
  0.333333  0.333333  0.000000    0.11111111   4 t-inv F
 -0.333333  0.333333  0.000000    0.11111111   5 t-inv F
 -0.333333  0.000000  0.000000    0.11111111   2 t-inv T
  0.000000 -0.333333  0.000000    0.11111111   3 t-inv T
 -0.333333 -0.333333  0.000000    0.11111111   4 t-inv T
  0.333333 -0.333333  0.000000    0.11111111   5 t-inv T


--------------------------------------------------------------------------------------------------------




 Dimension of arrays:
   k-points           NKPTS =      5   k-points in BZ     NKDIM =      5   number of bands    NBANDS=    240
   number of dos      NEDOS =    301   number of ions     NIONS =     67
   non local maximal  LDIM  =      6   non local SUM 2l+1 LMDIM =     18
   total plane-waves  NPLWV = 846720
   max r-space proj   IRMAX =      1   max aug-charges    IRDMAX=  25433
   dimension x,y,z NGX =    84 NGY =   60 NGZ =  168
   dimension x,y,z NGXF=   168 NGYF=  120 NGZF=  336
   support grid    NGXF=   168 NGYF=  120 NGZF=  336
   ions per type =               6  10   4  18  26   3
   NGX,Y,Z   is equivalent  to a cutoff of  10.14, 10.43, 10.10 a.u.
   NGXF,Y,Z  is equivalent  to a cutoff of  20.28, 20.86, 20.19 a.u.

 SYSTEM =  (110) surface DM                        
 POSCAR =  F   F   FAl Nb Ta Ti Zr                 

 Startparameter for this run:
   NWRITE =      2    write-flag & timer
   PREC   = normal    normal or accurate (medium, high low for compatibility)
   ISTART =      0    job   : 0-new  1-cont  2-samecut
   ICHARG =      2    charge: 1-file 2-atom 10-const
   ISPIN  =      1    spin polarized calculation?
   LNONCOLLINEAR =      F non collinear calculations
   LSORBIT =      F    spin-orbit coupling
   INIWAV =      1    electr: 0-lowe 1-rand  2-diag
   LASPH  =      F    aspherical Exc in radial PAW
   METAGGA=      F    non-selfconsistent MetaGGA calc.

 Electronic Relaxation 1
   ENCUT  =  600.0 eV  44.10 Ry    6.64 a.u.  27.50 19.10 55.25*2*pi/ulx,y,z
   ENINI  =  600.0     initial cutoff
   ENAUG  =  605.4 eV  augmentation charge cutoff
   NELM   =     60;   NELMIN=  2; NELMDL= -5     # of ELM steps 
   EDIFF  = 0.1E-05   stopping-criterion for ELM
   LREAL  =      F    real-space projection
   NLSPLINE    = F    spline interpolate recip. space projectors
   LCOMPAT=      F    compatible to vasp.4.4
   GGA_COMPAT  = T    GGA compatible to vasp.4.4-vasp.4.6
   LMAXPAW     = -100 max onsite density
   LMAXMIX     =    2 max onsite mixed and CHGCAR
   VOSKOWN=      0    Vosko Wilk Nusair interpolation
   ROPT   =    0.00000   0.00000   0.00000   0.00000
   ROPT   =    0.00000   0.00000
 Ionic relaxation
   EDIFFG = 0.1E-04   stopping-criterion for IOM
   NSW    =    841    number of steps for IOM
   NBLOCK =      1;   KBLOCK =    841    inner block; outer block 
   IBRION =      5    ionic relax: 0-MD 1-quasi-New 2-CG
   NFREE  =      2    steps in history (QN), initial steepest desc. (CG)
   ISIF   =      2    stress and relaxation
   IWAVPR =     11    prediction:  0-non 1-charg 2-wave 3-comb
   ISYM   =      2    0-nonsym 1-usesym 2-fastsym
   LCORR  =      T    Harris-Foulkes like correction to forces

   POTIM  = 0.0150    time-step for ionic-motion
   TEIN   =    0.0    initial temperature
   TEBEG  =    0.0;   TEEND  =   0.0 temperature during run
   SMASS  =  -3.00    Nose mass-parameter (am)
   estimated Nose-frequenzy (Omega)   =  0.10E-29 period in steps =****** mass=  -0.433E-26a.u.
   SCALEE = 1.0000    scale energy and forces
   NPACO  =    256;   APACO  = 16.0  distance and # of slots for P.C.
   PSTRESS=    0.0 pullay stress

  Mass of Ions in am
   POMASS =  26.98 92.91180.95 47.88 91.22 16.00
  Ionic Valenz
   ZVAL   =   3.00 13.00  5.00  4.00  4.00  6.00
  Atomic Wigner-Seitz radii
   RWIGS  =  -1.00 -1.00 -1.00 -1.00 -1.00 -1.00
  virtual crystal weights 
   VCA    =   1.00  1.00  1.00  1.00  1.00  1.00
   NELECT =     362.0000    total number of electrons
   NUPDOWN=      -1.0000    fix difference up-down

 DOS related values:
   EMIN   =  10.00;   EMAX   =-10.00  energy-range for DOS
   EFERMI =   0.00
   ISMEAR =     2;   SIGMA  =   0.10  broadening in eV -4-tet -1-fermi 0-gaus

 Electronic relaxation 2 (details)
   IALGO  =     38    algorithm
   LDIAG  =      T    sub-space diagonalisation (order eigenvalues)
   LSUBROT=      F    optimize rotation matrix (better conditioning)
   TURBO    =      0    0=normal 1=particle mesh
   IRESTART =      0    0=no restart 2=restart with 2 vectors
   NREBOOT  =      0    no. of reboots
   NMIN     =      0    reboot dimension
   EREF     =   0.00    reference energy to select bands
   IMIX   =      4    mixing-type and parameters
     AMIX     =   0.40;   BMIX     =  1.00
     AMIX_MAG =   1.60;   BMIX_MAG =  1.00
     AMIN     =   0.10
     WC   =   100.;   INIMIX=   1;  MIXPRE=   1;  MAXMIX=  60

 Intra band minimization:
   WEIMIN = 0.0010     energy-eigenvalue tresh-hold
   EBREAK =  0.10E-08  absolut break condition
   DEPER  =   0.30     relativ break condition  

   TIME   =   0.40     timestep for ELM

  volume/ion in A,a.u.               =      54.38       366.99
  Fermi-wavevector in a.u.,A,eV,Ry     =   0.758230  1.432847  7.822158  0.574912
  Thomas-Fermi vector in A             =   1.856754
 
 Write flags
   LWAVE        =      F    write WAVECAR
   LDOWNSAMPLE  =      F    k-point downsampling of WAVECAR
   LCHARG       =      F    write CHGCAR
   LVTOT        =      F    write LOCPOT, total local potential
   LVHAR        =      F    write LOCPOT, Hartree potential only
   LELF         =      F    write electronic localiz. function (ELF)
   LORBIT       =      0    0 simple, 1 ext, 2 COOP (PROOUT), +10 PAW based schemes


 Dipole corrections
   LMONO  =      F    monopole corrections only (constant potential shift)
   LDIPOL =      F    correct potential (dipole corrections)
   IDIPOL =      0    1-x, 2-y, 3-z, 4-all directions 
   EPSILON=  1.0000000 bulk dielectric constant

 Exchange correlation treatment:
   GGA     =    --    GGA type
   LEXCH   =     8    internal setting for exchange type
   VOSKOWN=      0    Vosko Wilk Nusair interpolation
   LHFCALC =     F    Hartree Fock is set to
   LHFONE  =     F    Hartree Fock one center treatment
   AEXX    =    0.0000 exact exchange contribution

 Linear response parameters
   LEPSILON=     F    determine dielectric tensor
   LRPA    =     F    only Hartree local field effects (RPA)
   LNABLA  =     F    use nabla operator in PAW spheres
   LVEL    =     F    velocity operator in full k-point grid
   LINTERFAST=   F  fast interpolation
   KINTER  =     0    interpolate to denser k-point grid
   CSHIFT  =0.1000    complex shift for real part using Kramers Kronig
   OMEGAMAX=  -1.0    maximum frequency
   DEG_THRESHOLD= 0.2000000E-02 threshold for treating states as degnerate
   RTIME   =   -0.100 relaxation time in fs
  (WPLASMAI=    0.000 imaginary part of plasma frequency in eV, 0.658/RTIME)
   DFIELD  = 0.0000000 0.0000000 0.0000000 field for delta impulse in time
 
 Orbital magnetization related:
   ORBITALMAG=     F  switch on orbital magnetization
   LCHIMAG   =     F  perturbation theory with respect to B field
   DQ        =  0.001000  dq finite difference perturbation B field
   LLRAUG    =     F  two centre corrections for induced B field



--------------------------------------------------------------------------------------------------------


 finite differences
   using selective dynamics as specified on POSCAR
 charge density and potential will be updated during run
 non-spin polarized calculation
 Variant of blocked Davidson
 Davidson routine will perform the subspace rotation
 perform sub-space diagonalisation
    after iterative eigenvector-optimisation
 modified Broyden-mixing scheme, WC =      100.0
 initial mixing is a Kerker type mixing with AMIX =  0.4000 and BMIX =      1.0000
 Hartree-type preconditioning will be used
 using additional bands           59
 reciprocal scheme for non local part
 use partial core corrections
 calculate Harris-corrections to forces 
   (improved forces if not selfconsistent)
 use gradient corrections 
 use of overlap-Matrix (Vanderbilt PP)
 Methfessel and Paxton  Order N= 2 SIGMA  =   0.10


--------------------------------------------------------------------------------------------------------


  energy-cutoff  :      600.00
  volume of cell :     3643.60
      direct lattice vectors                 reciprocal lattice vectors
    13.771350861  0.000000000  0.000000000     0.072614518  0.000000000  0.000000000
     0.000000000  9.564481735  0.000000000     0.000000000  0.104553496  0.000000000
     0.000000000  0.000000000 27.662570434     0.000000000  0.000000000  0.036149931

  length of vectors
    13.771350861  9.564481735 27.662570434     0.072614518  0.104553496  0.036149931


 
 k-points in units of 2pi/SCALE and weight: k-points                                
   0.00000000  0.00000000  0.00000000       0.111
   0.02420484  0.00000000  0.00000000       0.222
   0.00000000  0.03485117  0.00000000       0.222
   0.02420484  0.03485117  0.00000000       0.222
  -0.02420484  0.03485117  0.00000000       0.222
 
 k-points in reciprocal lattice and weights: k-points                                
   0.00000000  0.00000000  0.00000000       0.111
   0.33333333  0.00000000  0.00000000       0.222
   0.00000000  0.33333333  0.00000000       0.222
   0.33333333  0.33333333  0.00000000       0.222
  -0.33333333  0.33333333  0.00000000       0.222
 
 position of ions in fractional coordinates (direct lattice) 
   0.62276447  0.86746430  0.37590333
   0.62193365  0.38996832  0.54560040
   0.61596137  0.64448213  0.62836948
   0.61839700  0.08363760  0.44965952
   0.97817175  0.64142702  0.55476003
   0.97963780  0.12056648  0.37767599
   0.72857308  0.34338307  0.45816820
   0.72570735  0.90390996  0.62006386
   0.51739597  0.60805875  0.36719826
   0.51492679  0.13208050  0.53998828
   0.61811078  0.34297293  0.36889183
   0.62072575  0.87527335  0.53679766
   0.74231148  0.84345710  0.46199300
   0.74066490  0.40808726  0.62583822
   0.39405298  0.84738672  0.36896032
   0.39377627  0.36814813  0.54244198
   0.61928761  0.60162497  0.45752798
   0.62879840  0.16150752  0.62243244
   0.27944195  0.83362269  0.45088327
   0.28272954  0.37248774  0.62058693
   0.28056878  0.59094864  0.54181348
   0.28324246  0.07725573  0.36149931
   0.73226887  0.63192533  0.54105765
   0.74002355  0.11549973  0.36646499
   0.49591756  0.83582580  0.45790018
   0.49967130  0.38306140  0.62529142
   0.83016148  0.66102877  0.62459938
   0.84724605  0.11017048  0.45460239
   0.85243583  0.34907103  0.37639265
   0.85132108  0.86409694  0.55015431
   0.52175105  0.33942658  0.46105252
   0.52847426  0.90059051  0.62245088
   0.49962789  0.62461086  0.54087639
   0.49943882  0.10200214  0.36464270
   0.40016663  0.58028412  0.45130253
   0.39930463  0.12067205  0.62240050
   0.25505811  0.36595738  0.46399110
   0.23990901  0.92444432  0.62824519
   0.25182599  0.61397660  0.37627308
   0.24609224  0.13603919  0.54902179
   0.86539888  0.85904646  0.37036829
   0.86425160  0.38444063  0.54523738
   0.38059813  0.35186696  0.37331264
   0.37538979  0.87321990  0.54708034
   0.38643401  0.65471274  0.63099536
   0.38408008  0.10357511  0.45579618
   0.11657381  0.61110574  0.46457054
   0.10002984  0.18167590  0.63872832
   0.99629861  0.59295863  0.36811234
   0.99428939  0.11174677  0.54498993
   0.11869311  0.87196302  0.37467704
   0.11274157  0.39462101  0.55176795
   0.99977952  0.33051389  0.45306987
   0.99958433  0.87581413  0.62454955
   0.14482272  0.33176249  0.36788561
   0.13629058  0.84773666  0.54166941
   0.97888047  0.87608504  0.46520830
   0.96272125  0.44899139  0.64342575
   0.15191787  0.63258900  0.62215208
   0.14721048  0.09173214  0.45072276
   0.73135245  0.60578495  0.36679988
   0.73858590  0.12956002  0.53816940
   0.86923259  0.59196168  0.45825814
   0.86457823  0.15361909  0.63548924
   0.38528667  0.89724421  0.63489407
   0.97834976  0.25375674  0.67552304
   0.25554170  0.14480929  0.63718812
 
 position of ions in cartesian coordinates  (Angst):
   8.57630799  8.29684649 10.39845223
   8.56486654  3.72984488 15.09270957
   8.48262013  6.16413758 17.38231504
   8.51616202  0.79995025 12.43873821
  13.47074642  6.13491699 15.34608852
  13.49093588  1.15315590 10.44748880
  10.03343557  3.28428114 12.67411000
   9.99397047  8.64543028 17.15256018
   7.12524148  5.81576681 10.15764776
   7.09123755  1.26328149 14.93746384
   8.51222037  3.28035836 10.20449636
   8.54823207  8.37153592 14.84920298
  10.22263181  8.06723005 12.77991378
  10.19995627  3.90314312 17.31229393
   5.42664188  8.10481479 10.20639088
   5.42283118  3.52114610 15.00533959
   8.52842696  5.75423100 12.65640004
   8.65940338  1.54473572 17.21808133
   3.84829318  7.97316903 12.47259035
   3.89356764  3.56265216 17.16702955
   3.86381112  5.65211748 14.98795358
   3.90063135  0.73891098 10.00000000
  10.08433158  6.04403829 14.96704539
  10.19112400  1.10469510 10.13736353
   6.82945470  7.99424061 12.66669595
   6.88114883  3.66378374 17.29716807
  11.43244501  6.32239761 17.27802434
  11.66772263  1.05372358 12.57547056
  11.73919286  3.33868345 10.41198829
  11.72384123  8.26463942 15.21868235
   7.18521672  3.24643930 12.75389771
   7.27780441  8.61368147 17.21859129
   6.88055097  5.97407913 14.96203125
   6.87794726  0.97559764 10.08695433
   5.51083508  5.55011685 12.48418803
   5.49896410  1.15416564 17.21719769
   3.51249472  3.50019267 12.83518635
   3.30387121  8.84183079 17.37887687
   3.46798404  5.87236796 10.40868071
   3.38902259  1.30114430 15.18735405
  11.91771166  8.21633417 10.24533883
  11.90191200  3.67697542 15.08266748
   5.24135036  3.36542512 10.32678719
   5.16962455  8.35189576 15.13364840
   5.32171834  6.26198800 17.45495361
   5.28930157  0.99064225 12.60849381
   1.60537885  5.84490969 12.85121538
   1.37754600  1.73763581 17.66886706
  13.72037774  5.67134198 10.18293350
  13.69270808  1.06879997 15.07582228
   1.63456451  8.33987442 10.36453009
   1.55260367  3.77434546 15.26331981
  13.76831459  3.16119411 12.53307716
  13.76562655  8.37670822 17.27664585
   1.99440444  3.17313630 10.17666150
   1.87690544  8.10816181 14.98396820
  13.48050634  8.37929939 12.86885734
  13.25797215  4.29436997 17.79881022
   2.09211433  6.05038594 17.21032586
   2.02728715  0.87737042 12.46815015
  10.07171117  5.79401911 10.14662739
  10.17132563  1.23917446 14.88714887
  11.97050705  5.66180669 12.67659812
  11.90641010  1.46928701 17.57926578
   5.30591788  8.58167586 17.56280190
  13.47319779  2.42705169 18.68670359
   3.51915444  1.38502576 17.62626131
 


--------------------------------------------------------------------------------------------------------


 k-point  1 :   0.0000 0.0000 0.0000  plane waves:  121663
 k-point  2 :   0.3333 0.0000 0.0000  plane waves:  121577
 k-point  3 :   0.0000 0.3333 0.0000  plane waves:  121622
 k-point  4 :   0.3333 0.3333 0.0000  plane waves:  121647
 k-point  5 :  -0.3333 0.3333 0.0000  plane waves:  121647

 maximum and minimum number of plane-waves per node :    121663   121577

 maximum number of plane-waves:    121663
 maximum index in each direction: 
   IXMAX=   27   IYMAX=   19   IZMAX=   55
   IXMIN=  -27   IYMIN=  -19   IZMIN=  -55


 serial   3D FFT for wavefunctions
 parallel 3D FFT for charge:
    minimum data exchange during FFTs selected (reduces bandwidth)


 total amount of memory used by VASP MPI-rank0   832438. kBytes
=======================================================================

   base      :      30000. kBytes
   nonl-proj :     656098. kBytes
   fftplans  :      11449. kBytes
   grid      :      55342. kBytes
   one-center:       1041. kBytes
   wavefun   :      78508. kBytes
 
     INWAV:  cpu time    0.0001: real time    0.0002
 Broyden mixing: mesh for mixing (old mesh)
   NGX = 55   NGY = 39   NGZ =111
  (NGX  =168   NGY  =120   NGZ  =336)
  gives a total of 238095 points

 initial charge density was supplied:
 charge density of overlapping atoms calculated
 number of electron     362.0000000 magnetization 
 keeping initial charge density in first step


--------------------------------------------------------------------------------------------------------


 Maximum index for augmentation-charges         1486 (set IRDMAX)


--------------------------------------------------------------------------------------------------------


 First call to EWALD:  gamma=   0.115
 Maximum number of real-space cells 3x 4x 2
 Maximum number of reciprocal cells 3x 2x 5

    FEWALD:  cpu time    0.0020: real time    0.0021


--------------------------------------- Iteration      1(   1)  ---------------------------------------


    POTLOK:  cpu time    0.1259: real time    0.1291
    SETDIJ:  cpu time    0.0097: real time    0.0099
     EDDAV:  cpu time   26.4097: real time   26.6270
       DOS:  cpu time    0.0009: real time    0.0009
    --------------------------------------------
      LOOP:  cpu time   26.5462: real time   26.7669

 eigenvalue-minimisations  :  2550
 total energy-change (2. order) : 0.3902644E+04  (-0.1325974E+05)
 number of electron     362.0000000 magnetization 
 augmentation part      362.0000000 magnetization 

 Free energy of the ion-electron system (eV)
  ---------------------------------------------------
  alpha Z        PSCENC =       541.01969910
  Ewald energy   TEWEN  =     75030.62230049
  -Hartree energ DENC   =    -94243.40876715
  -exchange      EXHF   =         0.00000000
  -V(xc)+E(xc)   XCENC  =     -3004.80895288
  PAW double counting   =     20478.92955384   -16393.09178658
  entropy T*S    EENTRO =        -0.00682607
  eigenvalues    EBANDS =        70.30043648
  atomic energy  EATOM  =     21423.08850241
  Solvation  Ediel_sol  =         0.00000000
  ---------------------------------------------------
  free energy    TOTEN  =      3902.64415962 eV

  energy without entropy =     3902.65098570  energy(sigma->0) =     3902.64586614


--------------------------------------------------------------------------------------------------------




--------------------------------------- Iteration      1(   2)  ---------------------------------------


     EDDAV:  cpu time   26.6014: real time   26.7787
       DOS:  cpu time    0.0008: real time    0.0008
    --------------------------------------------
      LOOP:  cpu time   26.6022: real time   26.7795

 eigenvalue-minimisations  :  2580
 total energy-change (2. order) :-0.3695815E+04  (-0.3563105E+04)
 number of electron     362.0000000 magnetization 
 augmentation part      362.0000000 magnetization 

 Free energy of the ion-electron system (eV)
  ---------------------------------------------------
  alpha Z        PSCENC =       541.01969910
  Ewald energy   TEWEN  =     75030.62230049
  -Hartree energ DENC   =    -94243.40876715
  -exchange      EXHF   =         0.00000000
  -V(xc)+E(xc)   XCENC  =     -3004.80895288
  PAW double counting   =     20478.92955384   -16393.09178658
  entropy T*S    EENTRO =         0.01406393
  eigenvalues    EBANDS =     -3625.53582742
  atomic energy  EATOM  =     21423.08850241
  Solvation  Ediel_sol  =         0.00000000
  ---------------------------------------------------
  free energy    TOTEN  =       206.82878573 eV

  energy without entropy =      206.81472180  energy(sigma->0) =      206.82526974


--------------------------------------------------------------------------------------------------------




--------------------------------------- Iteration      1(   3)  ---------------------------------------


     EDDAV:  cpu time   39.6690: real time   39.9317
       DOS:  cpu time    0.0006: real time    0.0006
    --------------------------------------------
      LOOP:  cpu time   39.6697: real time   39.9324

 eigenvalue-minimisations  :  4200
 total energy-change (2. order) :-0.7044043E+03  (-0.6727125E+03)
 number of electron     362.0000000 magnetization 
 augmentation part      362.0000000 magnetization 

 Free energy of the ion-electron system (eV)
  ---------------------------------------------------
  alpha Z        PSCENC =       541.01969910
  Ewald energy   TEWEN  =     75030.62230049
  -Hartree energ DENC   =    -94243.40876715
  -exchange      EXHF   =         0.00000000
  -V(xc)+E(xc)   XCENC  =     -3004.80895288
  PAW double counting   =     20478.92955384   -16393.09178658
  entropy T*S    EENTRO =         0.00071154
  eigenvalues    EBANDS =     -4329.92679621
  atomic energy  EATOM  =     21423.08850241
  Solvation  Ediel_sol  =         0.00000000
  ---------------------------------------------------
  free energy    TOTEN  =      -497.57553545 eV

  energy without entropy =     -497.57624699  energy(sigma->0) =     -497.57571334


--------------------------------------------------------------------------------------------------------




--------------------------------------- Iteration      1(   4)  ---------------------------------------


     EDDAV:  cpu time   39.4305: real time   39.6925
       DOS:  cpu time    0.0006: real time    0.0006
    --------------------------------------------
      LOOP:  cpu time   39.4311: real time   39.6930

 eigenvalue-minimisations  :  4170
 total energy-change (2. order) :-0.1061731E+03  (-0.1018867E+03)
 number of electron     362.0000000 magnetization 
 augmentation part      362.0000000 magnetization 

 Free energy of the ion-electron system (eV)
  ---------------------------------------------------
  alpha Z        PSCENC =       541.01969910
  Ewald energy   TEWEN  =     75030.62230049
  -Hartree energ DENC   =    -94243.40876715
  -exchange      EXHF   =         0.00000000
  -V(xc)+E(xc)   XCENC  =     -3004.80895288
  PAW double counting   =     20478.92955384   -16393.09178658
  entropy T*S    EENTRO =         0.00756646
  eigenvalues    EBANDS =     -4436.10678596
  atomic energy  EATOM  =     21423.08850241
  Solvation  Ediel_sol  =         0.00000000
  ---------------------------------------------------
  free energy    TOTEN  =      -603.74867028 eV

  energy without entropy =     -603.75623674  energy(sigma->0) =     -603.75056190


--------------------------------------------------------------------------------------------------------




--------------------------------------- Iteration      1(   5)  ---------------------------------------


     EDDAV:  cpu time   39.1046: real time   39.3921
       DOS:  cpu time    0.0006: real time    0.0006
    CHARGE:  cpu time    0.5469: real time    0.5503
    MIXING:  cpu time    0.0035: real time    0.0035
    --------------------------------------------
      LOOP:  cpu time   39.6556: real time   39.9465

 eigenvalue-minimisations  :  4140
 total energy-change (2. order) :-0.9222154E+01  (-0.9042557E+01)
 number of electron     361.9999987 magnetization 
 augmentation part       43.3510788 magnetization 

 Broyden mixing:
  rms(total) = 0.62082E+01    rms(broyden)= 0.62081E+01
  rms(prec ) = 0.67972E+01
  weight for this iteration     100.00

 Free energy of the ion-electron system (eV)
  ---------------------------------------------------
  alpha Z        PSCENC =       541.01969910
  Ewald energy   TEWEN  =     75030.62230049
  -Hartree energ DENC   =    -94243.40876715
  -exchange      EXHF   =         0.00000000
  -V(xc)+E(xc)   XCENC  =     -3004.80895288
  PAW double counting   =     20478.92955384   -16393.09178658
  entropy T*S    EENTRO =        -0.00207907
  eigenvalues    EBANDS =     -4445.31929485
  atomic energy  EATOM  =     21423.08850241
  Solvation  Ediel_sol  =         0.00000000
  ---------------------------------------------------
  free energy    TOTEN  =      -612.97082470 eV

  energy without entropy =     -612.96874563  energy(sigma->0) =     -612.97030494


--------------------------------------------------------------------------------------------------------




--------------------------------------- Iteration      1(   6)  ---------------------------------------


    POTLOK:  cpu time    0.1110: real time    0.1114
    SETDIJ:  cpu time    0.0097: real time    0.0100
     EDDAV:  cpu time   40.7594: real time   41.0223
       DOS:  cpu time    0.0006: real time    0.0006
    CHARGE:  cpu time    0.5893: real time    0.5929
    MIXING:  cpu time    0.0043: real time    0.0092
    --------------------------------------------
      LOOP:  cpu time   41.4744: real time   41.7464

 eigenvalue-minimisations  :  4320
 total energy-change (2. order) :-0.7736537E+02  (-0.1204885E+03)
 number of electron     361.9999991 magnetization 
 augmentation part       73.1046124 magnetization 

 Broyden mixing:
  rms(total) = 0.89237E+01    rms(broyden)= 0.89237E+01
  rms(prec ) = 0.11623E+02
  weight for this iteration     100.00

 eigenvalues of (default mixing * dielectric matrix)
  average eigenvalue GAMMA=   0.3971
  0.3971

 Free energy of the ion-electron system (eV)
  ---------------------------------------------------
  alpha Z        PSCENC =       541.01969910
  Ewald energy   TEWEN  =     75030.62230049
  -Hartree energ DENC   =    -94961.51871413
  -exchange      EXHF   =         0.00000000
  -V(xc)+E(xc)   XCENC  =     -2990.27231481
  PAW double counting   =     24195.90700953   -20110.27952587
  entropy T*S    EENTRO =        -0.00427240
  eigenvalues    EBANDS =     -3818.89888298
  atomic energy  EATOM  =     21423.08850241
  Solvation  Ediel_sol  =         0.00000000
  ---------------------------------------------------
  free energy    TOTEN  =      -690.33619866 eV

  energy without entropy =     -690.33192626  energy(sigma->0) =     -690.33513056


--------------------------------------------------------------------------------------------------------




--------------------------------------- Iteration      1(   7)  ---------------------------------------


    POTLOK:  cpu time    0.1099: real time    0.1105
    SETDIJ:  cpu time    0.0076: real time    0.0076
     EDDAV:  cpu time   37.6645: real time   37.9248
       DOS:  cpu time    0.0007: real time    0.0007
    CHARGE:  cpu time    0.5947: real time    0.5995
    MIXING:  cpu time    0.0035: real time    0.0044
    --------------------------------------------
      LOOP:  cpu time   38.3809: real time   38.6474

 eigenvalue-minimisations  :  3960
 total energy-change (2. order) : 0.1024121E+03  (-0.2349567E+03)
 number of electron     362.0000000 magnetization 
 augmentation part       58.6237455 magnetization 

 Broyden mixing:
  rms(total) = 0.46807E+01    rms(broyden)= 0.46807E+01
  rms(prec ) = 0.67350E+01
  weight for this iteration     100.00

 eigenvalues of (default mixing * dielectric matrix)
  average eigenvalue GAMMA=   0.5113
  0.7956  0.2269

 Free energy of the ion-electron system (eV)
  ---------------------------------------------------
  alpha Z        PSCENC =       541.01969910
  Ewald energy   TEWEN  =     75030.62230049
  -Hartree energ DENC   =    -94466.49065401
  -exchange      EXHF   =         0.00000000
  -V(xc)+E(xc)   XCENC  =     -2993.80882825
  PAW double counting   =     24320.85813377   -20250.33846443
  entropy T*S    EENTRO =         0.00836826
  eigenvalues    EBANDS =     -4192.88314183
  atomic energy  EATOM  =     21423.08850241
  Solvation  Ediel_sol  =         0.00000000
  ---------------------------------------------------
  free energy    TOTEN  =      -587.92408449 eV

  energy without entropy =     -587.93245274  energy(sigma->0) =     -587.92617655


--------------------------------------------------------------------------------------------------------




--------------------------------------- Iteration      1(   8)  ---------------------------------------


    POTLOK:  cpu time    0.1090: real time    0.1096
    SETDIJ:  cpu time    0.0079: real time    0.0079
     EDDAV:  cpu time   37.4311: real time   37.6734
       DOS:  cpu time    0.0006: real time    0.0006
    CHARGE:  cpu time    0.4940: real time    0.4998
    MIXING:  cpu time    0.0045: real time    0.0053
    --------------------------------------------
      LOOP:  cpu time   38.0471: real time   38.2966

 eigenvalue-minimisations  :  3930
 total energy-change (2. order) :-0.4124095E+02  (-0.7827168E+02)
 number of electron     361.9999994 magnetization 
 augmentation part       46.9108764 magnetization 

 Broyden mixing:
  rms(total) = 0.42911E+01    rms(broyden)= 0.42911E+01
  rms(prec ) = 0.76449E+01
  weight for this iteration     100.00

 eigenvalues of (default mixing * dielectric matrix)
  average eigenvalue GAMMA=   0.5412
  1.1464  0.2386  0.2386

 Free energy of the ion-electron system (eV)
  ---------------------------------------------------
  alpha Z        PSCENC =       541.01969910
  Ewald energy   TEWEN  =     75030.62230049
  -Hartree energ DENC   =    -94453.80065258
  -exchange      EXHF   =         0.00000000
  -V(xc)+E(xc)   XCENC  =     -2996.48125563
  PAW double counting   =     24744.51179488   -20687.09376683
  entropy T*S    EENTRO =        -0.00084346
  eigenvalues    EBANDS =     -4231.03081463
  atomic energy  EATOM  =     21423.08850241
  Solvation  Ediel_sol  =         0.00000000
  ---------------------------------------------------
  free energy    TOTEN  =      -629.16503626 eV

  energy without entropy =     -629.16419279  energy(sigma->0) =     -629.16482539


--------------------------------------------------------------------------------------------------------




--------------------------------------- Iteration      1(   9)  ---------------------------------------


    POTLOK:  cpu time    0.1108: real time    0.1113
    SETDIJ:  cpu time    0.0074: real time    0.0074
     EDDAV:  cpu time   40.9095: real time   41.2163
       DOS:  cpu time    0.0006: real time    0.0006
    CHARGE:  cpu time    0.4901: real time    0.4922
    MIXING:  cpu time    0.0038: real time    0.0038
    --------------------------------------------
      LOOP:  cpu time   41.5221: real time   41.8317

 eigenvalue-minimisations  :  4350
 total energy-change (2. order) : 0.4845637E+02  (-0.2334212E+02)
 number of electron     361.9999992 magnetization 
 augmentation part       46.1354279 magnetization 

 Broyden mixing:
  rms(total) = 0.34189E+01    rms(broyden)= 0.34189E+01
  rms(prec ) = 0.51325E+01
  weight for this iteration     100.00

 eigenvalues of (default mixing * dielectric matrix)
  average eigenvalue GAMMA=   0.5150
  1.3514  0.2853  0.2853  0.1380

 Free energy of the ion-electron system (eV)
  ---------------------------------------------------
  alpha Z        PSCENC =       541.01969910
  Ewald energy   TEWEN  =     75030.62230049
  -Hartree energ DENC   =    -94445.73386205
  -exchange      EXHF   =         0.00000000
  -V(xc)+E(xc)   XCENC  =     -2995.05757543
  PAW double counting   =     25203.51866387   -21147.41107618
  entropy T*S    EENTRO =         0.01043389
  eigenvalues    EBANDS =     -4190.76575129
  atomic energy  EATOM  =     21423.08850241
  Solvation  Ediel_sol  =         0.00000000
  ---------------------------------------------------
  free energy    TOTEN  =      -580.70866520 eV

  energy without entropy =     -580.71909909  energy(sigma->0) =     -580.71127367


--------------------------------------------------------------------------------------------------------




--------------------------------------- Iteration      1(  10)  ---------------------------------------


    POTLOK:  cpu time    0.1093: real time    0.1098
    SETDIJ:  cpu time    0.0073: real time    0.0073
     EDDAV:  cpu time   37.6591: real time   37.8997
       DOS:  cpu time    0.0006: real time    0.0006
    CHARGE:  cpu time    0.4769: real time    0.4785
    MIXING:  cpu time    0.0050: real time    0.0050
    --------------------------------------------
      LOOP:  cpu time   38.2582: real time   38.5009

 eigenvalue-minimisations  :  3960
 total energy-change (2. order) : 0.2714922E+02  (-0.1071881E+02)
 number of electron     361.9999992 magnetization 
 augmentation part       48.2548143 magnetization 

 Broyden mixing:
  rms(total) = 0.24435E+01    rms(broyden)= 0.24435E+01
  rms(prec ) = 0.30289E+01
  weight for this iteration     100.00

 eigenvalues of (default mixing * dielectric matrix)
  average eigenvalue GAMMA=   0.5431
  1.5485  0.4027  0.4027  0.2256  0.1362

 Free energy of the ion-electron system (eV)
  ---------------------------------------------------
  alpha Z        PSCENC =       541.01969910
  Ewald energy   TEWEN  =     75030.62230049
  -Hartree energ DENC   =    -94514.95075595
  -exchange      EXHF   =         0.00000000
  -V(xc)+E(xc)   XCENC  =     -2991.32118176
  PAW double counting   =     25863.05258487   -21802.69841936
  entropy T*S    EENTRO =        -0.00265081
  eigenvalues    EBANDS =     -4102.36952027
  atomic energy  EATOM  =     21423.08850241
  Solvation  Ediel_sol  =         0.00000000
  ---------------------------------------------------
  free energy    TOTEN  =      -553.55944128 eV

  energy without entropy =     -553.55679047  energy(sigma->0) =     -553.55877857


--------------------------------------------------------------------------------------------------------




--------------------------------------- Iteration      1(  11)  ---------------------------------------


    POTLOK:  cpu time    0.1064: real time    0.1069
    SETDIJ:  cpu time    0.0073: real time    0.0073
     EDDAV:  cpu time   34.7098: real time   34.9400
       DOS:  cpu time    0.0006: real time    0.0006
    CHARGE:  cpu time    0.4943: real time    0.4960
    MIXING:  cpu time    0.0043: real time    0.0043
    --------------------------------------------
      LOOP:  cpu time   35.3227: real time   35.5552

 eigenvalue-minimisations  :  3600
 total energy-change (2. order) : 0.7919612E+01  (-0.5004810E+01)
 number of electron     361.9999993 magnetization 
 augmentation part       47.4653516 magnetization 

 Broyden mixing:
  rms(total) = 0.19315E+01    rms(broyden)= 0.19315E+01
  rms(prec ) = 0.22487E+01
  weight for this iteration     100.00

 eigenvalues of (default mixing * dielectric matrix)
  average eigenvalue GAMMA=   0.5565
  1.7059  0.5073  0.5073  0.2418  0.2418  0.1346

 Free energy of the ion-electron system (eV)
  ---------------------------------------------------
  alpha Z        PSCENC =       541.01969910
  Ewald energy   TEWEN  =     75030.62230049
  -Hartree energ DENC   =    -94643.40368191
  -exchange      EXHF   =         0.00000000
  -V(xc)+E(xc)   XCENC  =     -2987.95671149
  PAW double counting   =     26506.86064698   -22442.09653348
  entropy T*S    EENTRO =         0.00013597
  eigenvalues    EBANDS =     -3973.77418771
  atomic energy  EATOM  =     21423.08850241
  Solvation  Ediel_sol  =         0.00000000
  ---------------------------------------------------
  free energy    TOTEN  =      -545.63982965 eV

  energy without entropy =     -545.63996561  energy(sigma->0) =     -545.63986364


--------------------------------------------------------------------------------------------------------




--------------------------------------- Iteration      1(  12)  ---------------------------------------


    POTLOK:  cpu time    0.1073: real time    0.1078
    SETDIJ:  cpu time    0.0077: real time    0.0077
     EDDAV:  cpu time   36.4538: real time   36.6883
       DOS:  cpu time    0.0012: real time    0.0012
    CHARGE:  cpu time    0.4756: real time    0.4772
    MIXING:  cpu time    0.0049: real time    0.0049
    --------------------------------------------
      LOOP:  cpu time   37.0505: real time   37.2871

 eigenvalue-minimisations  :  3810
 total energy-change (2. order) : 0.5044565E+01  (-0.1425142E+01)
 number of electron     361.9999993 magnetization 
 augmentation part       48.9519022 magnetization 

 Broyden mixing:
  rms(total) = 0.13276E+01    rms(broyden)= 0.13276E+01
  rms(prec ) = 0.15403E+01
  weight for this iteration     100.00

 eigenvalues of (default mixing * dielectric matrix)
  average eigenvalue GAMMA=   0.5518
  1.7764  0.5872  0.5872  0.2795  0.2795  0.1357  0.2173

 Free energy of the ion-electron system (eV)
  ---------------------------------------------------
  alpha Z        PSCENC =       541.01969910
  Ewald energy   TEWEN  =     75030.62230049
  -Hartree energ DENC   =    -94675.90750172
  -exchange      EXHF   =         0.00000000
  -V(xc)+E(xc)   XCENC  =     -2985.82627133
  PAW double counting   =     26903.75037699   -22832.91159318
  entropy T*S    EENTRO =         0.00242534
  eigenvalues    EBANDS =     -3944.43320264
  atomic energy  EATOM  =     21423.08850241
  Solvation  Ediel_sol  =         0.00000000
  ---------------------------------------------------
  free energy    TOTEN  =      -540.59526454 eV

  energy without entropy =     -540.59768988  energy(sigma->0) =     -540.59587088


--------------------------------------------------------------------------------------------------------




--------------------------------------- Iteration      1(  13)  ---------------------------------------


    POTLOK:  cpu time    0.1068: real time    0.1072
    SETDIJ:  cpu time    0.0076: real time    0.0076
     EDDAV:  cpu time   36.0432: real time   36.2718
       DOS:  cpu time    0.0010: real time    0.0010
    CHARGE:  cpu time    0.4932: real time    0.4949
    MIXING:  cpu time    0.0051: real time    0.0051
    --------------------------------------------
      LOOP:  cpu time   36.6568: real time   36.8877

 eigenvalue-minimisations  :  3750
 total energy-change (2. order) : 0.1661612E+01  (-0.7442360E+00)
 number of electron     361.9999993 magnetization 
 augmentation part       49.7115640 magnetization 

 Broyden mixing:
  rms(total) = 0.10006E+01    rms(broyden)= 0.10006E+01
  rms(prec ) = 0.12017E+01
  weight for this iteration     100.00

 eigenvalues of (default mixing * dielectric matrix)
  average eigenvalue GAMMA=   0.5856
  1.8520  0.7811  0.7811  0.3621  0.3621  0.1352  0.2256  0.1852

 Free energy of the ion-electron system (eV)
  ---------------------------------------------------
  alpha Z        PSCENC =       541.01969910
  Ewald energy   TEWEN  =     75030.62230049
  -Hartree energ DENC   =    -94696.60220356
  -exchange      EXHF   =         0.00000000
  -V(xc)+E(xc)   XCENC  =     -2984.72804779
[...]
     11.906410  1.469287 17.579266            0           0           0  
      5.305918  8.581676 17.562802     0.126800    0.768428   -0.168929  
     13.473198  2.427052 18.686704     0.034769    0.073405    0.029586  
      3.519154  1.385026 17.626261    -0.155593   -0.537041    0.211679  
 
   7 f  =   10.236426 THz    64.317362 2PiTHz  341.450412 cm-1    42.334471 meV
             X         Y         Z           dx          dy          dz
      8.576308  8.296846 10.398452            0           0           0  
      8.564867  3.729845 15.092710            0           0           0  
      8.482620  6.164138 17.382315            0           0           0  
      8.516162  0.799950 12.438738            0           0           0  
     13.470746  6.134917 15.346089            0           0           0  
     13.490936  1.153156 10.447489            0           0           0  
     10.033436  3.284281 12.674110            0           0           0  
      9.993970  8.645430 17.152560            0           0           0  
      7.125241  5.815767 10.157648            0           0           0  
      7.091238  1.263281 14.937464            0           0           0  
      8.512220  3.280358 10.204496            0           0           0  
      8.548232  8.371536 14.849203            0           0           0  
     10.222632  8.067230 12.779914            0           0           0  
     10.199956  3.903143 17.312294            0           0           0  
      5.426642  8.104815 10.206391            0           0           0  
      5.422831  3.521146 15.005340            0           0           0  
      8.528427  5.754231 12.656400            0           0           0  
      8.659403  1.544736 17.218081            0           0           0  
      3.848293  7.973169 12.472590            0           0           0  
      3.893568  3.562652 17.167030            0           0           0  
      3.863811  5.652117 14.987954            0           0           0  
      3.900631  0.738911 10.000000            0           0           0  
     10.084332  6.044038 14.967045            0           0           0  
     10.191124  1.104695 10.137364            0           0           0  
      6.829455  7.994241 12.666696            0           0           0  
      6.881149  3.663784 17.297168            0           0           0  
     11.432445  6.322398 17.278024            0           0           0  
     11.667723  1.053724 12.575471            0           0           0  
     11.739193  3.338683 10.411988            0           0           0  
     11.723841  8.264639 15.218682            0           0           0  
      7.185217  3.246439 12.753898            0           0           0  
      7.277804  8.613681 17.218591            0           0           0  
      6.880551  5.974079 14.962031            0           0           0  
      6.877947  0.975598 10.086954            0           0           0  
      5.510835  5.550117 12.484188            0           0           0  
      5.498964  1.154166 17.217198            0           0           0  
      3.512495  3.500193 12.835186            0           0           0  
      3.303871  8.841831 17.378877            0           0           0  
      3.467984  5.872368 10.408681            0           0           0  
      3.389023  1.301144 15.187354            0           0           0  
     11.917712  8.216334 10.245339            0           0           0  
     11.901912  3.676975 15.082667            0           0           0  
      5.241350  3.365425 10.326787            0           0           0  
      5.169625  8.351896 15.133648            0           0           0  
      5.321718  6.261988 17.454954            0           0           0  
      5.289302  0.990642 12.608494            0           0           0  
      1.605379  5.844910 12.851215            0           0           0  
      1.377546  1.737636 17.668867            0           0           0  
     13.720378  5.671342 10.182934            0           0           0  
     13.692708  1.068800 15.075822            0           0           0  
      1.634565  8.339874 10.364530            0           0           0  
      1.552604  3.774345 15.263320            0           0           0  
     13.768315  3.161194 12.533077            0           0           0  
     13.765627  8.376708 17.276646            0           0           0  
      1.994404  3.173136 10.176661            0           0           0  
      1.876905  8.108162 14.983968            0           0           0  
     13.480506  8.379299 12.868857            0           0           0  
     13.257972  4.294370 17.798810            0           0           0  
      2.092114  6.050386 17.210326            0           0           0  
      2.027287  0.877370 12.468150            0           0           0  
     10.071711  5.794019 10.146627            0           0           0  
     10.171326  1.239174 14.887149            0           0           0  
     11.970507  5.661807 12.676598            0           0           0  
     11.906410  1.469287 17.579266            0           0           0  
      5.305918  8.581676 17.562802     0.025621    0.550079   -0.270608  
     13.473198  2.427052 18.686704    -0.013151   -0.043808   -0.010103  
      3.519154  1.385026 17.626261     0.149662    0.745241   -0.208689  
 
   8 f  =    8.822595 THz    55.434000 2PiTHz  294.290087 cm-1    36.487334 meV
             X         Y         Z           dx          dy          dz
      8.576308  8.296846 10.398452            0           0           0  
      8.564867  3.729845 15.092710            0           0           0  
      8.482620  6.164138 17.382315            0           0           0  
      8.516162  0.799950 12.438738            0           0           0  
     13.470746  6.134917 15.346089            0           0           0  
     13.490936  1.153156 10.447489            0           0           0  
     10.033436  3.284281 12.674110            0           0           0  
      9.993970  8.645430 17.152560            0           0           0  
      7.125241  5.815767 10.157648            0           0           0  
      7.091238  1.263281 14.937464            0           0           0  
      8.512220  3.280358 10.204496            0           0           0  
      8.548232  8.371536 14.849203            0           0           0  
     10.222632  8.067230 12.779914            0           0           0  
     10.199956  3.903143 17.312294            0           0           0  
      5.426642  8.104815 10.206391            0           0           0  
      5.422831  3.521146 15.005340            0           0           0  
      8.528427  5.754231 12.656400            0           0           0  
      8.659403  1.544736 17.218081            0           0           0  
      3.848293  7.973169 12.472590            0           0           0  
      3.893568  3.562652 17.167030            0           0           0  
      3.863811  5.652117 14.987954            0           0           0  
      3.900631  0.738911 10.000000            0           0           0  
     10.084332  6.044038 14.967045            0           0           0  
     10.191124  1.104695 10.137364            0           0           0  
      6.829455  7.994241 12.666696            0           0           0  
      6.881149  3.663784 17.297168            0           0           0  
     11.432445  6.322398 17.278024            0           0           0  
     11.667723  1.053724 12.575471            0           0           0  
     11.739193  3.338683 10.411988            0           0           0  
     11.723841  8.264639 15.218682            0           0           0  
      7.185217  3.246439 12.753898            0           0           0  
      7.277804  8.613681 17.218591            0           0           0  
      6.880551  5.974079 14.962031            0           0           0  
      6.877947  0.975598 10.086954            0           0           0  
      5.510835  5.550117 12.484188            0           0           0  
      5.498964  1.154166 17.217198            0           0           0  
      3.512495  3.500193 12.835186            0           0           0  
      3.303871  8.841831 17.378877            0           0           0  
      3.467984  5.872368 10.408681            0           0           0  
      3.389023  1.301144 15.187354            0           0           0  
     11.917712  8.216334 10.245339            0           0           0  
     11.901912  3.676975 15.082667            0           0           0  
      5.241350  3.365425 10.326787            0           0           0  
      5.169625  8.351896 15.133648            0           0           0  
      5.321718  6.261988 17.454954            0           0           0  
      5.289302  0.990642 12.608494            0           0           0  
      1.605379  5.844910 12.851215            0           0           0  
      1.377546  1.737636 17.668867            0           0           0  
     13.720378  5.671342 10.182934            0           0           0  
     13.692708  1.068800 15.075822            0           0           0  
      1.634565  8.339874 10.364530            0           0           0  
      1.552604  3.774345 15.263320            0           0           0  
     13.768315  3.161194 12.533077            0           0           0  
     13.765627  8.376708 17.276646            0           0           0  
      1.994404  3.173136 10.176661            0           0           0  
      1.876905  8.108162 14.983968            0           0           0  
     13.480506  8.379299 12.868857            0           0           0  
     13.257972  4.294370 17.798810            0           0           0  
      2.092114  6.050386 17.210326            0           0           0  
      2.027287  0.877370 12.468150            0           0           0  
     10.071711  5.794019 10.146627            0           0           0  
     10.171326  1.239174 14.887149            0           0           0  
     11.970507  5.661807 12.676598            0           0           0  
     11.906410  1.469287 17.579266            0           0           0  
      5.305918  8.581676 17.562802    -0.063973   -0.133286   -0.560495  
     13.473198  2.427052 18.686704    -0.003638    0.019453    0.030718  
      3.519154  1.385026 17.626261    -0.110645   -0.289962   -0.752550  
 
   9 f  =    8.371658 THz    52.600681 2PiTHz  279.248455 cm-1    34.622408 meV
             X         Y         Z           dx          dy          dz
      8.576308  8.296846 10.398452            0           0           0  
      8.564867  3.729845 15.092710            0           0           0  
      8.482620  6.164138 17.382315            0           0           0  
      8.516162  0.799950 12.438738            0           0           0  
     13.470746  6.134917 15.346089            0           0           0  
     13.490936  1.153156 10.447489            0           0           0  
     10.033436  3.284281 12.674110            0           0           0  
      9.993970  8.645430 17.152560            0           0           0  
      7.125241  5.815767 10.157648            0           0           0  
      7.091238  1.263281 14.937464            0           0           0  
      8.512220  3.280358 10.204496            0           0           0  
      8.548232  8.371536 14.849203            0           0           0  
     10.222632  8.067230 12.779914            0           0           0  
     10.199956  3.903143 17.312294            0           0           0  
      5.426642  8.104815 10.206391            0           0           0  
      5.422831  3.521146 15.005340            0           0           0  
      8.528427  5.754231 12.656400            0           0           0  
      8.659403  1.544736 17.218081            0           0           0  
      3.848293  7.973169 12.472590            0           0           0  
      3.893568  3.562652 17.167030            0           0           0  
      3.863811  5.652117 14.987954            0           0           0  
      3.900631  0.738911 10.000000            0           0           0  
     10.084332  6.044038 14.967045            0           0           0  
     10.191124  1.104695 10.137364            0           0           0  
      6.829455  7.994241 12.666696            0           0           0  
      6.881149  3.663784 17.297168            0           0           0  
     11.432445  6.322398 17.278024            0           0           0  
     11.667723  1.053724 12.575471            0           0           0  
     11.739193  3.338683 10.411988            0           0           0  
     11.723841  8.264639 15.218682            0           0           0  
      7.185217  3.246439 12.753898            0           0           0  
      7.277804  8.613681 17.218591            0           0           0  
      6.880551  5.974079 14.962031            0           0           0  
      6.877947  0.975598 10.086954            0           0           0  
      5.510835  5.550117 12.484188            0           0           0  
      5.498964  1.154166 17.217198            0           0           0  
      3.512495  3.500193 12.835186            0           0           0  
      3.303871  8.841831 17.378877            0           0           0  
      3.467984  5.872368 10.408681            0           0           0  
      3.389023  1.301144 15.187354            0           0           0  
     11.917712  8.216334 10.245339            0           0           0  
     11.901912  3.676975 15.082667            0           0           0  
      5.241350  3.365425 10.326787            0           0           0  
      5.169625  8.351896 15.133648            0           0           0  
      5.321718  6.261988 17.454954            0           0           0  
      5.289302  0.990642 12.608494            0           0           0  
      1.605379  5.844910 12.851215            0           0           0  
      1.377546  1.737636 17.668867            0           0           0  
     13.720378  5.671342 10.182934            0           0           0  
     13.692708  1.068800 15.075822            0           0           0  
      1.634565  8.339874 10.364530            0           0           0  
      1.552604  3.774345 15.263320            0           0           0  
     13.768315  3.161194 12.533077            0           0           0  
     13.765627  8.376708 17.276646            0           0           0  
      1.994404  3.173136 10.176661            0           0           0  
      1.876905  8.108162 14.983968            0           0           0  
     13.480506  8.379299 12.868857            0           0           0  
     13.257972  4.294370 17.798810            0           0           0  
      2.092114  6.050386 17.210326            0           0           0  
      2.027287  0.877370 12.468150            0           0           0  
     10.071711  5.794019 10.146627            0           0           0  
     10.171326  1.239174 14.887149            0           0           0  
     11.970507  5.661807 12.676598            0           0           0  
     11.906410  1.469287 17.579266            0           0           0  
      5.305918  8.581676 17.562802    -0.077530   -0.254938   -0.761140  
     13.473198  2.427052 18.686704     0.006472   -0.015013   -0.017238  
      3.519154  1.385026 17.626261     0.076423    0.061274    0.582668  
 
 Finite differences POTIM=  1.500000000000000E-002
  LATTYP: Found a simple orthorhombic cell.
 ALAT       =     9.5644817352
 B/A-ratio  =     1.4398428730
 C/A-ratio  =     2.8922184390
  
  Lattice vectors:
  
 A1 = (   0.0000000000,  -9.5644817352,   0.0000000000)
 A2 = ( -13.7713508606,   0.0000000000,   0.0000000000)
 A3 = (   0.0000000000,   0.0000000000, -27.6625704340)


Analysis of symmetry for initial positions (statically):
=====================================================================
 Subroutine PRICEL returns:
 Original cell was already a primitive cell.
 

 Routine SETGRP: Setting up the symmetry group for a 
 simple orthorhombic supercell.


 Subroutine GETGRP returns: Found  1 space group operations
 (whereof  1 operations were pure point group operations)
 out of a pool of  8 trial point group operations.


The static configuration has the point symmetry C_1 .


Analysis of symmetry for dynamics (positions and initial velocities):
=====================================================================
 Subroutine PRICEL returns:
 Original cell was already a primitive cell.
 

 Routine SETGRP: Setting up the symmetry group for a 
 simple orthorhombic supercell.


 Subroutine GETGRP returns: Found  1 space group operations
 (whereof  1 operations were pure point group operations)
 out of a pool of  8 trial point group operations.


The dynamic configuration has the point symmetry C_1 .


Analysis of constrained symmetry for selective dynamics:
=====================================================================
 Subroutine PRICEL returns:
 Original cell was already a primitive cell.
 

 Routine SETGRP: Setting up the symmetry group for a 
 simple orthorhombic supercell.


 Subroutine GETGRP returns: Found  1 space group operations
 (whereof  1 operations were pure point group operations)
 out of a pool of  8 trial point group operations.


The constrained configuration has the point symmetry C_1 .


 Subroutine INISYM returns: Found  1 space group operations
 (whereof  1 operations are pure point group operations),
 and found     1 'primitive' translations

 
 KPOINTS: k-points                                

Automatic generation of k-mesh.
Space group operators:
 irot       det(A)        alpha          n_x          n_y          n_z        tau_x        tau_y        tau_z
    1     1.000000     0.000001     1.000000     0.000000     0.000000     0.000000     0.000000     0.000000
 
 Subroutine IBZKPT returns following result:
 ===========================================
 
 Found      5 irreducible k-points:
 
 Following reciprocal coordinates:
            Coordinates               Weight
  0.000000  0.000000  0.000000      1.000000
  0.333333  0.000000  0.000000      2.000000
  0.000000  0.333333  0.000000      2.000000
  0.333333  0.333333  0.000000      2.000000
 -0.333333  0.333333  0.000000      2.000000
 
 Following cartesian coordinates:
            Coordinates               Weight
  0.000000  0.000000  0.000000      1.000000
  0.024205  0.000000  0.000000      2.000000
  0.000000  0.034851  0.000000      2.000000
  0.024205  0.034851  0.000000      2.000000
 -0.024205  0.034851  0.000000      2.000000
 
     LOOP+:  cpu time  344.1606: real time  346.3302
    4ORBIT:  cpu time    0.0000: real time    0.0000

 total amount of memory used by VASP MPI-rank0   832438. kBytes
=======================================================================

   base      :      30000. kBytes
   nonl-proj :     656098. kBytes
   fftplans  :      11449. kBytes
   grid      :      55342. kBytes
   one-center:       1041. kBytes
   wavefun   :      78508. kBytes
 
  
  
 General timing and accounting informations for this job:
 ========================================================
  
                  Total CPU time used (sec):     9032.234
                            User time (sec):     8991.832
                          System time (sec):       40.402
                         Elapsed time (sec):     9091.005
  
                   Maximum memory used (kb):     1078332.
                   Average memory used (kb):           0.
  
                          Minor page faults:      1839611
                          Major page faults:           42
                 Voluntary context switches:        58823
