 vasp.5.4.1 05Feb16 (build Mar 19 2020 08:54:17) complex                        
  
 executed on           IFC91_ompi date 2021.10.24  12:45:34
 running on   96 total cores
 distrk:  each k-point on   96 cores,    1 groups
 distr:  one band on NCORES_PER_BAND=  48 cores,    2 groups


--------------------------------------------------------------------------------------------------------


 INCAR:
 POTCAR:    PAW_PBE Al 04Jan2001                  
 POTCAR:    PAW_PBE Nb_sv 25May2007               
 POTCAR:    PAW_PBE Ta 17Jan2003                  
 POTCAR:    PAW_PBE Ti 08Apr2002                  
 POTCAR:   PAW_PBE Zr 08Apr2002                   
 POTCAR:    PAW_PBE O 08Apr2002                   

 ----------------------------------------------------------------------------- 
|                                                                             |
|           W    W    AA    RRRRR   N    N  II  N    N   GGGG   !!!           |
|           W    W   A  A   R    R  NN   N  II  NN   N  G    G  !!!           |
|           W    W  A    A  R    R  N N  N  II  N N  N  G       !!!           |
|           W WW W  AAAAAA  RRRRR   N  N N  II  N  N N  G  GGG   !            |
|           WW  WW  A    A  R   R   N   NN  II  N   NN  G    G                |
|           W    W  A    A  R    R  N    N  II  N    N   GGGG   !!!           |
|                                                                             |
|      For optimal performance we recommend to set                            |
|        NCORE= 4 - approx SQRT( number of cores)                             |
|      NCORE specifies how many cores store one orbital (NPAR=cpu/NCORE).     |
|      This setting can  greatly improve the performance of VASP for DFT.     |
|      The default, NPAR=number of cores might be grossly inefficient         |
|      on modern multi-core architectures or massively parallel machines.     |
|      Do your own testing !!!!                                               |
|      Unfortunately you need to use the default for GW and RPA calculations. |
|      (for HF NCORE is supported but not extensively tested yet)             |
|                                                                             |
 ----------------------------------------------------------------------------- 

 POTCAR:    PAW_PBE Al 04Jan2001                  
   VRHFIN =Al: s2p1                                                             
   LEXCH  = PE                                                                  
   EATOM  =    53.5387 eV,    3.9350 Ry                                         
                                                                                
   TITEL  = PAW_PBE Al 04Jan2001                                                
   LULTRA =        F    use ultrasoft PP ?                                      
   IUNSCR =        1    unscreen: 0-lin 1-nonlin 2-no                           
   RPACOR =    1.500    partial core radius                                     
   POMASS =   26.981; ZVAL   =    3.000    mass and valenz                      
   RCORE  =    1.900    outmost cutoff radius                                   
   RWIGS  =    2.650; RWIGS  =    1.402    wigner-seitz radius (au A)           
   ENMAX  =  240.300; ENMIN  =  180.225 eV                                      
   ICORE  =        2    local potential                                         
   LCOR   =        T    correct aug charges                                     
   LPAW   =        T    paw PP                                                  
   EAUG   =  291.052                                                            
   DEXC   =    0.000                                                            
   RMAX   =    1.939    core radius for proj-oper                               
   RAUG   =    1.300    factor for augmentation sphere                          
   RDEP   =    1.966    radius for radial grids                                 
   RDEPT  =    1.856    core radius for aug-charge                              
                                                                                
   Atomic configuration                                                         
    6 entries                                                                   
     n  l   j            E        occ.                                          
     1  0  0.50     -1511.1048   2.0000                                         
     2  0  0.50      -108.1629   2.0000                                         
     2  1  1.50       -69.6402   6.0000                                         
     3  0  0.50        -7.7528   2.0000                                         
     3  1  1.50        -2.7121   1.0000                                         
     3  2  2.50        -2.7212   0.0000                                         
   Description                                                                  
     l       E           TYP  RCUT    TYP  RCUT                                 
     0     -7.7528455     23  1.900                                             
     0     -3.3096929     23  1.900                                             
     1     -2.7120682     23  1.900                                             
     1     13.6058260     23  1.900                                             
     2     -2.7211652      7  1.900                                             
  local pseudopotential read in
  partial core-charges read in
  partial kinetic energy density read in
  atomic valenz-charges read in
  non local Contribution for L=           0  read in
    real space projection operators read in
  non local Contribution for L=           0  read in
    real space projection operators read in
  non local Contribution for L=           1  read in
    real space projection operators read in
  non local Contribution for L=           1  read in
    real space projection operators read in
    PAW grid and wavefunctions read in
 
   number of l-projection  operators is LMAX  =           4
   number of lm-projection operators is LMMAX =           8
 
 POTCAR:    PAW_PBE Nb_sv 25May2007               
   VRHFIN =Nb: 4p5s4d                                                           
   LEXCH  = PE                                                                  
   EATOM  =  1555.1913 eV,  114.3033 Ry                                         
                                                                                
   TITEL  = PAW_PBE Nb_sv 25May2007                                             
   LULTRA =        F    use ultrasoft PP ?                                      
   IUNSCR =        1    unscreen: 0-lin 1-nonlin 2-no                           
   RPACOR =    1.800    partial core radius                                     
   POMASS =   92.910; ZVAL   =   13.000    mass and valenz                      
   RCORE  =    2.400    outmost cutoff radius                                   
   RWIGS  =    2.400; RWIGS  =    1.270    wigner-seitz radius (au A)           
   ENMAX  =  293.235; ENMIN  =  219.927 eV                                      
   ICORE  =        3    local potential                                         
   LCOR   =        T    correct aug charges                                     
   LPAW   =        T    paw PP                                                  
   EAUG   =  455.659                                                            
   DEXC   =    0.000                                                            
   RMAX   =    2.456    core radius for proj-oper                               
   RAUG   =    1.300    factor for augmentation sphere                          
   RDEP   =    2.451    radius for radial grids                                 
   RDEPT  =    1.956    core radius for aug-charge                              
                                                                                
   Atomic configuration                                                         
   11 entries                                                                   
     n  l   j            E        occ.                                          
     1  0  0.50    -18805.2457   2.0000                                         
     2  0  0.50     -2630.2869   2.0000                                         
     2  1  1.50     -2348.4046   6.0000                                         
     3  0  0.50      -438.8757   2.0000                                         
     3  1  1.50      -346.7588   6.0000                                         
     3  2  2.50      -196.2560  10.0000                                         
     4  0  0.50       -58.3859   2.0000                                         
     5  0  0.50        -3.9816   1.0000                                         
     4  1  1.50       -34.5141   6.0000                                         
     4  2  2.50        -3.0408   4.0000                                         
     4  3  2.50        -1.3606   0.0000                                         
   Description                                                                  
     l       E           TYP  RCUT    TYP  RCUT                                 
     0    -58.3859094     23  2.200                                             
     0     -3.9816262     23  2.200                                             
     1    -34.5140738     23  2.200                                             
     1     13.6058260     23  2.200                                             
     2     -3.0408010     23  2.200                                             
     2     -0.1283038     23  2.200                                             
     3     -1.3605826     23  2.400                                             
  local pseudopotential read in
  partial core-charges read in
  partial kinetic energy density read in
  atomic valenz-charges read in
  non local Contribution for L=           0  read in
    real space projection operators read in
  non local Contribution for L=           0  read in
    real space projection operators read in
  non local Contribution for L=           1  read in
    real space projection operators read in
  non local Contribution for L=           1  read in
    real space projection operators read in
  non local Contribution for L=           2  read in
    real space projection operators read in
  non local Contribution for L=           2  read in
    real space projection operators read in
    PAW grid and wavefunctions read in
 
   number of l-projection  operators is LMAX  =           6
   number of lm-projection operators is LMMAX =          18
 
 POTCAR:    PAW_PBE Ta 17Jan2003                  
   VRHFIN =Ta:  6s5d                                                            
   LEXCH  = PE                                                                  
   EATOM  =   130.6506 eV,    9.6025 Ry                                         
                                                                                
   TITEL  = PAW_PBE Ta 17Jan2003                                                
   LULTRA =        F    use ultrasoft PP ?                                      
   IUNSCR =        1    unscreen: 0-lin 1-nonlin 2-no                           
   RPACOR =    2.330    partial core radius                                     
   POMASS =  180.948; ZVAL   =    5.000    mass and valenz                      
   RCORE  =    2.900    outmost cutoff radius                                   
   RWIGS  =    2.840; RWIGS  =    1.503    wigner-seitz radius (au A)           
   ENMAX  =  223.667; ENMIN  =  167.750 eV                                      
   RCLOC  =    2.205    cutoff for local pot                                    
   LCOR   =        T    correct aug charges                                     
   LPAW   =        T    paw PP                                                  
   EAUG   =  332.075                                                            
   DEXC   =    0.000                                                            
   RMAX   =    2.970    core radius for proj-oper                               
   RAUG   =    1.300    factor for augmentation sphere                          
   RDEP   =    3.060    radius for radial grids                                 
   RDEPT  =    2.354    core radius for aug-charge                              
                                                                                
   Atomic configuration                                                         
   16 entries                                                                   
     n  l   j            E        occ.                                          
     1  0  0.50    -67341.2807   2.0000                                         
     2  0  0.50    -11566.9376   2.0000                                         
     2  1  1.50    -10134.1182   6.0000                                         
     3  0  0.50     -2648.5620   2.0000                                         
     3  1  1.50     -2222.6012   6.0000                                         
     3  2  2.50     -1726.3120  10.0000                                         
     4  0  0.50      -538.6961   2.0000                                         
     4  1  1.50      -399.0129   6.0000                                         
     4  2  2.50      -220.3959  10.0000                                         
     4  3  3.50       -23.0374  14.0000                                         
     5  0  0.50       -71.2901   2.0000                                         
     5  1  1.50       -37.8225   6.0000                                         
     5  2  2.50        -2.6455   4.0000                                         
     6  0  0.50        -4.9623   1.0000                                         
     6  1  1.50        -1.3606   0.0000                                         
     5  3  2.50        -1.3606   0.0000                                         
   Description                                                                  
     l       E           TYP  RCUT    TYP  RCUT                                 
     2     -2.6455043     23  2.500                                             
     2     -0.6258895     23  2.500                                             
     0     -4.9622780     23  2.500                                             
     0      4.7531321     23  2.500                                             
     1     -1.3605826     23  2.900                                             
     1     27.2116520     23  2.900                                             
  local pseudopotential read in
  partial core-charges read in
  partial kinetic energy density read in
  atomic valenz-charges read in
  non local Contribution for L=           2  read in
    real space projection operators read in
  non local Contribution for L=           2  read in
    real space projection operators read in
  non local Contribution for L=           0  read in
    real space projection operators read in
  non local Contribution for L=           0  read in
    real space projection operators read in
  non local Contribution for L=           1  read in
    real space projection operators read in
  non local Contribution for L=           1  read in
    real space projection operators read in
    PAW grid and wavefunctions read in
 
   number of l-projection  operators is LMAX  =           6
   number of lm-projection operators is LMMAX =          18
 
 POTCAR:    PAW_PBE Ti 08Apr2002                  
   VRHFIN =Ti: d3 s1                                                            
   LEXCH  = PE                                                                  
   EATOM  =    94.7928 eV,    6.9671 Ry                                         
                                                                                
   TITEL  = PAW_PBE Ti 08Apr2002                                                
   LULTRA =        F    use ultrasoft PP ?                                      
   IUNSCR =        1    unscreen: 0-lin 1-nonlin 2-no                           
   RPACOR =    2.200    partial core radius                                     
   POMASS =   47.880; ZVAL   =    4.000    mass and valenz                      
   RCORE  =    2.800    outmost cutoff radius                                   
   RWIGS  =    2.500; RWIGS  =    1.323    wigner-seitz radius (au A)           
   ENMAX  =  178.330; ENMIN  =  133.747 eV                                      
   RCLOC  =    2.215    cutoff for local pot                                    
   LCOR   =        T    correct aug charges                                     
   LPAW   =        T    paw PP                                                  
   EAUG   =  328.883                                                            
   DEXC   =    0.000                                                            
   RMAX   =    2.868    core radius for proj-oper                               
   RAUG   =    1.300    factor for augmentation sphere                          
   RDEP   =    2.885    radius for radial grids                                 
   RDEPT  =    2.320    core radius for aug-charge                              
                                                                                
   Atomic configuration                                                         
    9 entries                                                                   
     n  l   j            E        occ.                                          
     1  0  0.50     -4865.3608   2.0000                                         
     2  0  0.50      -533.1367   2.0000                                         
     2  1  1.50      -440.5031   6.0000                                         
     3  0  0.50       -59.3186   2.0000                                         
     3  1  1.50       -35.7012   6.0000                                         
     3  2  2.50        -1.9157   3.0000                                         
     4  0  0.50        -3.7291   1.0000                                         
     4  1  1.50        -4.0817   0.0000                                         
     4  3  2.50        -1.3606   0.0000                                         
   Description                                                                  
     l       E           TYP  RCUT    TYP  RCUT                                 
     2     -1.9156924     23  2.800                                             
     2     -0.4062961     23  2.800                                             
     0     -3.7290832     23  2.800                                             
     0     20.4087390     23  2.800                                             
     1     -5.4423304     23  2.800                                             
  local pseudopotential read in
  partial core-charges read in
  partial kinetic energy density read in
  atomic valenz-charges read in
  non local Contribution for L=           2  read in
    real space projection operators read in
  non local Contribution for L=           2  read in
    real space projection operators read in
  non local Contribution for L=           0  read in
    real space projection operators read in
  non local Contribution for L=           0  read in
    real space projection operators read in
  non local Contribution for L=           1  read in
    real space projection operators read in
    PAW grid and wavefunctions read in
 
   number of l-projection  operators is LMAX  =           5
   number of lm-projection operators is LMMAX =          15
 
 POTCAR:   PAW_PBE Zr 08Apr2002                   
   VRHFIN =Zr: 5s4d5p                                                           
   LEXCH  = PE                                                                  
   EATOM  =    77.8472 eV,    5.7216 Ry                                         
                                                                                
   TITEL  = PAW_PBE Zr 08Apr2002                                                
   LULTRA =        F    use ultrasoft PP ?                                      
   IUNSCR =        1    unscreen: 0-lin 1-nonlin 2-no                           
   RPACOR =    2.200    partial core radius                                     
   POMASS =   91.224; ZVAL   =    4.000    mass and valenz                      
   RCORE  =    3.000    outmost cutoff radius                                   
   RWIGS  =    3.070; RWIGS  =    1.625    wigner-seitz radius (au A)           
   ENMAX  =  154.632; ENMIN  =  115.974 eV                                      
   RCLOC  =    2.213    cutoff for local pot                                    
   LCOR   =        T    correct aug charges                                     
   LPAW   =        T    paw PP                                                  
   EAUG   =  243.217                                                            
   DEXC   =    -.082                                                            
   RMAX   =    3.708    core radius for proj-oper                               
   RAUG   =    1.300    factor for augmentation sphere                          
   RDEP   =    3.146    radius for radial grids                                 
   QCUT   =   -3.371; QGAM   =    6.742    optimization parameters              
                                                                                
   Description                                                                  
     l     E      TYP  RCUT    TYP  RCUT                                        
     2   .000     23  3.000                                                     
     2   .000     23  3.000                                                     
     0   .000     23  3.000                                                     
     0  2.000     23  3.000                                                     
     1  -.400     23  3.000                                                     
     3   .000      7   .000                                                     
  local pseudopotential read in
  partial core-charges read in
  atomic valenz-charges read in
  non local Contribution for L=           2  read in
    real space projection operators read in
  non local Contribution for L=           2  read in
    real space projection operators read in
  non local Contribution for L=           0  read in
    real space projection operators read in
  non local Contribution for L=           0  read in
    real space projection operators read in
  non local Contribution for L=           1  read in
    real space projection operators read in
    PAW grid and wavefunctions read in
 
   number of l-projection  operators is LMAX  =           5
   number of lm-projection operators is LMMAX =          15
 
 POTCAR:    PAW_PBE O 08Apr2002                   
   VRHFIN =O: s2p4                                                              
   LEXCH  = PE                                                                  
   EATOM  =   432.3788 eV,   31.7789 Ry                                         
                                                                                
   TITEL  = PAW_PBE O 08Apr2002                                                 
   LULTRA =        F    use ultrasoft PP ?                                      
   IUNSCR =        1    unscreen: 0-lin 1-nonlin 2-no                           
   RPACOR =    1.200    partial core radius                                     
   POMASS =   16.000; ZVAL   =    6.000    mass and valenz                      
   RCORE  =    1.520    outmost cutoff radius                                   
   RWIGS  =    1.550; RWIGS  =    0.820    wigner-seitz radius (au A)           
   ENMAX  =  400.000; ENMIN  =  300.000 eV                                      
   ICORE  =        2    local potential                                         
   LCOR   =        T    correct aug charges                                     
   LPAW   =        T    paw PP                                                  
   EAUG   =  605.392                                                            
   DEXC   =    0.000                                                            
   RMAX   =    1.553    core radius for proj-oper                               
   RAUG   =    1.300    factor for augmentation sphere                          
   RDEP   =    1.550    radius for radial grids                                 
   RDEPT  =    1.329    core radius for aug-charge                              
                                                                                
   Atomic configuration                                                         
    4 entries                                                                   
     n  l   j            E        occ.                                          
     1  0  0.50      -514.6923   2.0000                                         
     2  0  0.50       -23.9615   2.0000                                         
     2  1  0.50        -9.0305   4.0000                                         
     3  2  1.50        -9.5241   0.0000                                         
   Description                                                                  
     l       E           TYP  RCUT    TYP  RCUT                                 
     0    -23.9615318     23  1.200                                             
     0     -9.5240782     23  1.200                                             
     1     -9.0304911     23  1.520                                             
     1      8.1634956     23  1.520                                             
     2     -9.5240782      7  1.500                                             
  local pseudopotential read in
  partial core-charges read in
  partial kinetic energy density read in
  kinetic energy density of atom read in
  atomic valenz-charges read in
  non local Contribution for L=           0  read in
    real space projection operators read in
  non local Contribution for L=           0  read in
    real space projection operators read in
  non local Contribution for L=           1  read in
    real space projection operators read in
  non local Contribution for L=           1  read in
    real space projection operators read in
    PAW grid and wavefunctions read in
 
   number of l-projection  operators is LMAX  =           4
   number of lm-projection operators is LMMAX =           8
 

 ----------------------------------------------------------------------------- 
|                                                                             |
|  ADVICE TO THIS USER RUNNING 'VASP/VAMP'   (HEAR YOUR MASTER'S VOICE ...):  |
|                                                                             |
|      You have a (more or less) 'large supercell' and for larger cells       |
|      it might be more efficient to use real space projection opertators     |
|      So try LREAL= Auto  in the INCAR   file.                               |
|      Mind: At the moment your POTCAR file does not contain real space       |
|       projectors, and has to be modified,  BUT if you                       |
|      want to do an extremely  accurate calculation you might also keep the  |
|      reciprocal projection scheme          (i.e. LREAL=.FALSE.)             |
|                                                                             |
 ----------------------------------------------------------------------------- 

 WARNING: PSMAXN for non-local potential too small
          PSMAXN should be >   12.5490833729506       NTYP=           5
  PAW_PBE Al 04Jan2001                  :
 energy of atom  1       EATOM=  -53.5387
 kinetic energy error for atom=    0.0002 (will be added to EATOM!!)
  PAW_PBE Nb_sv 25May2007               :
 energy of atom  2       EATOM=-1555.1913
 kinetic energy error for atom=    0.0037 (will be added to EATOM!!)
  PAW_PBE Ta 17Jan2003                  :
 energy of atom  3       EATOM= -130.6506
 kinetic energy error for atom=    0.0004 (will be added to EATOM!!)
  PAW_PBE Ti 08Apr2002                  :
 energy of atom  4       EATOM=  -94.7928
 kinetic energy error for atom=    0.0001 (will be added to EATOM!!)
 PAW_PBE Zr 08Apr2002                   :
 energy of atom  5       EATOM=  -77.8472
 kinetic energy error for atom=    0.0001 (will be added to EATOM!!)
  PAW_PBE O 08Apr2002                   :
 energy of atom  6       EATOM= -432.3788
 kinetic energy error for atom=    0.0168 (will be added to EATOM!!)
 
 
 POSCAR: Al Nb Ta Ti Zr                          
  positions in direct lattice
  velocities in cartesian coordinates
 exchange correlation table for  LEXCH =        8
   RHO(1)=    0.500       N(1)  =     2000
   RHO(2)=  100.500       N(2)  =     4000
 


--------------------------------------------------------------------------------------------------------


 ion  position               nearest neighbor table
   1  0.623  0.867  0.376-  34 2.83  25 2.88  24 2.88   9 2.88  13 2.90   4 2.91  61 2.93  15 3.16
                            41 3.35  17 3.40
   2  0.619  0.402  0.546-  31 2.77  33 2.79   3 2.84  23 2.85  26 2.88  14 2.91   7 2.91  10 2.93
                            62 2.97  17 3.10  16 3.21  42 3.41
   3  0.632  0.625  0.613-  75 1.90  23 2.64  32 2.66  14 2.70   8 2.75   2 2.84  27 2.85  33 2.86
                            26 2.96  12 3.05
   4  0.618  0.084  0.450-  31 2.80  24 2.86  34 2.87  13 2.88   1 2.91  25 2.92   7 2.92  62 3.00
                            10 3.09  28 3.16  46 3.24
   5  0.974  0.641  0.552-  30 2.82  27 2.90  56 2.92  42 2.94  63 3.01  52 3.02  54 3.12  47 3.12
                            23 3.19  59 3.21  57 3.29  58 3.40
   6  0.980  0.121  0.378-  29 2.80  28 2.80  53 2.91  41 2.96  51 3.05  55 3.05  60 3.08  57 3.37

   7  0.729  0.343  0.458-  28 2.77  29 2.83  31 2.85  17 2.89  11 2.90   2 2.91   4 2.92  63 3.07
                            62 3.07  42 3.14
   8  0.727  0.875  0.625-  71 2.07  27 2.62  30 2.65  18 2.71   3 2.75  12 2.77  32 2.91  64 3.07
                            62 3.36
   9  0.517  0.608  0.367-  35 2.84  15 2.85  17 2.87   1 2.88  11 2.89  61 2.95  43 3.10
  10  0.510  0.139  0.545-  16 2.79  36 2.89  18 2.92   2 2.93  12 2.97  62 3.00  31 3.02  46 3.04
                             4 3.09  44 3.09
  11  0.618  0.343  0.369-  24 2.75  34 2.83  31 2.87   9 2.89   7 2.90  61 2.96  43 3.27
  12  0.614  0.867  0.542-   8 2.77  33 2.82  32 2.83  13 2.84  23 2.84  25 2.86  10 2.97  62 2.98
                             3 3.05  44 3.28
  13  0.742  0.843  0.462-  12 2.84  23 2.85  17 2.87   4 2.88   1 2.90  30 2.91  28 2.94  63 2.98
                            41 3.05  57 3.27
  14  0.730  0.389  0.635-  76 1.95  74 2.02   3 2.70  27 2.89   2 2.91  64 2.99  42 3.05  18 3.08
                            58 3.16
  15  0.394  0.847  0.369-  22 2.68  19 2.76  25 2.83  34 2.84   9 2.85  39 2.98   1 3.16  46 3.43

  16  0.387  0.372  0.546-  21 2.65  10 2.79  26 2.79  20 2.83  33 2.88  37 2.91  40 2.91  31 3.00
                             2 3.21  45 3.46
  17  0.619  0.602  0.458-  33 2.78  23 2.80  25 2.81  31 2.85   9 2.87  13 2.87   7 2.89  61 2.95
                            35 3.03   2 3.10   1 3.40  63 3.44
  18  0.619  0.110  0.635-  72 1.99  74 2.04  71 2.09   8 2.71  32 2.91  10 2.92  62 2.99  36 3.02
                            14 3.08  26 3.15  64 3.27
  19  0.279  0.834  0.451-  15 2.76  35 2.94  46 2.96  39 2.97  44 2.97  25 2.99  60 3.07  51 3.08
                            47 3.12  21 3.18  56 3.26
  20  0.276  0.349  0.632-  69 1.99  70 2.03  67 2.18  16 2.83  36 2.96  48 3.01  45 3.05  26 3.08
                            40 3.09  52 3.14  59 3.29
  21  0.277  0.594  0.531-  16 2.65  35 2.79  45 2.86  47 2.87  37 2.88  52 3.01  33 3.02  56 3.02
                            44 3.08  19 3.18
  22  0.283  0.077  0.361-  15 2.68  46 2.97  43 2.97  34 2.99  51 3.02  55 3.10  60 3.10
  23  0.745  0.638  0.536-   3 2.64  30 2.75  63 2.79  17 2.80  12 2.84  13 2.85   2 2.85  27 2.89
                            42 3.03   5 3.19
  24  0.740  0.115  0.366-  29 2.73  11 2.75  28 2.85   4 2.86   1 2.88  41 3.00
  25  0.496  0.836  0.458-  35 2.78  17 2.81  15 2.83  12 2.86   1 2.88   4 2.92  33 2.92  44 2.96
                            19 2.99  46 2.99
  26  0.498  0.388  0.630-  70 1.98  74 2.02  75 2.25  16 2.79   2 2.88   3 2.96  20 3.08  36 3.10
                            18 3.15  45 3.18
  27  0.835  0.650  0.631-  76 2.02  68 2.07   8 2.62  58 2.76   3 2.85  14 2.89  23 2.89   5 2.90
                            54 3.08  30 3.08  42 3.51
  28  0.847  0.110  0.455-   7 2.77   6 2.80  24 2.85  57 2.90  62 2.94  13 2.94  53 2.98  50 3.13
                            29 3.15   4 3.16  41 3.36
  29  0.852  0.349  0.376-  24 2.73   6 2.80   7 2.83  53 2.94  61 2.98  49 3.07  28 3.15  63 3.25

  30  0.851  0.876  0.552-   8 2.65  23 2.75   5 2.82  13 2.91  57 2.97  50 2.99  62 3.00  54 3.04
                            27 3.08  64 3.44
  31  0.522  0.339  0.461-   2 2.77   4 2.80  17 2.85   7 2.85  35 2.86  11 2.87  46 2.95  16 3.00
                            10 3.02  43 3.11
  32  0.518  0.843  0.632-  72 2.01  65 2.08  75 2.14   3 2.66  12 2.83   8 2.91  18 2.91  36 2.92
                            45 2.93  44 3.11
  33  0.495  0.629  0.536-  35 2.72  17 2.78   2 2.79  12 2.82   3 2.86  16 2.88  44 2.91  25 2.92
                            21 3.02  45 3.14
  34  0.499  0.102  0.365-  11 2.83   1 2.83  15 2.84   4 2.87  43 2.91  46 2.98  22 2.99
  35  0.400  0.580  0.451-  33 2.72  25 2.78  21 2.79   9 2.84  31 2.86  37 2.88  39 2.93  19 2.94
                            17 3.03  43 3.08
  36  0.400  0.096  0.633-  72 1.97  70 2.02  67 2.06  65 2.15  10 2.89  32 2.92  20 2.96  18 3.02
                            38 3.03  26 3.10  40 3.16  44 3.20
  37  0.255  0.366  0.464-  21 2.88  35 2.88  16 2.91  47 3.02  60 3.04  43 3.05  55 3.08  46 3.08
                            52 3.17  40 3.17  39 3.39
  38  0.222  0.909  0.634-  73 1.90  65 2.05  67 2.10  56 2.82  59 3.03  36 3.03  48 3.07  54 3.09
                            45 3.10  44 3.25  40 3.28
  39  0.252  0.614  0.376-  35 2.93  19 2.97  15 2.98  47 3.07  43 3.07  51 3.07  55 3.08  37 3.39
                            49 3.53
  40  0.251  0.139  0.548-  67 2.36  16 2.91  44 3.02  60 3.07  20 3.09  52 3.11  46 3.15  36 3.16
                            37 3.17  48 3.21  38 3.28  56 3.30  50 3.56
  41  0.865  0.859  0.370-   6 2.96  24 3.00  61 3.05  13 3.05  57 3.06  49 3.12   1 3.35  28 3.36
                            51 3.49  63 3.53
  42  0.866  0.376  0.548-   5 2.94  62 3.01  23 3.03  14 3.05  50 3.09  58 3.12   7 3.14  53 3.23
                            63 3.23  64 3.40  52 3.41   2 3.41  27 3.51
  43  0.381  0.352  0.373-  34 2.91  22 2.97  37 3.05  39 3.07  35 3.08   9 3.10  31 3.11  55 3.26
                            11 3.27  46 3.29
  44  0.376  0.880  0.546-  65 2.32  33 2.91  25 2.96  19 2.97  40 3.02  21 3.08  10 3.09  32 3.11
                            45 3.14  36 3.20  38 3.25  46 3.28  12 3.28  56 3.31
  45  0.354  0.648  0.625-  69 2.10  75 2.15  65 2.20  21 2.86  32 2.93  20 3.05  38 3.10  59 3.11
                            33 3.14  44 3.14  26 3.18  16 3.46
  46  0.384  0.104  0.456-  31 2.95  19 2.96  22 2.97  34 2.98  25 2.99  10 3.04  37 3.08  40 3.15
                             4 3.24  60 3.27  44 3.28  43 3.29  15 3.43
  47  0.117  0.611  0.465-  21 2.87  37 3.02  39 3.07  56 3.11  19 3.12   5 3.12  53 3.14  49 3.15
                            57 3.17  52 3.20  63 3.42  51 3.52  55 3.80
  48  0.095  0.172  0.634-  66 2.09  67 2.20  50 2.97  20 3.01  38 3.07  52 3.09  58 3.13  54 3.20
                            40 3.21  64 3.32
  49  0.996  0.593  0.368-  63 3.05  29 3.07  41 3.12  47 3.15  51 3.16  55 3.23  53 3.44  39 3.53
                            61 3.65  57 3.82
  50  0.994  0.110  0.541-  48 2.97  30 2.99  57 3.07  42 3.09  28 3.13  52 3.22  53 3.23  60 3.28
                            56 3.29  64 3.29  54 3.43  40 3.56  62 3.67
  51  0.119  0.872  0.375-  60 3.00  22 3.02   6 3.05  39 3.07  19 3.08  57 3.16  49 3.16  41 3.49
                            47 3.52
  52  0.113  0.396  0.553-  21 3.01   5 3.02  48 3.09  40 3.11  20 3.14  37 3.17  59 3.19  47 3.20
                            50 3.22  53 3.25  42 3.41  58 3.45
  53  1.000  0.331  0.453-   6 2.91  29 2.94  28 2.98  60 3.06  63 3.08  55 3.09  47 3.14  50 3.23
                            42 3.23  52 3.25  49 3.44
  54  0.000  0.867  0.632-  68 2.17  73 2.17  59 2.96  30 3.04  27 3.08  56 3.08  38 3.09   5 3.12
                            48 3.20  64 3.24  50 3.43
  55  0.145  0.332  0.368-   6 3.05  37 3.08  39 3.08  53 3.09  22 3.10  49 3.23  60 3.24  43 3.26
                            47 3.80
  56  0.137  0.835  0.545-  38 2.82   5 2.92  21 3.02  54 3.08  47 3.11  57 3.13  19 3.26  59 3.29
                            50 3.29  40 3.30  44 3.31  60 3.59
  57  0.979  0.876  0.465-  28 2.90  30 2.97  41 3.06  50 3.07  63 3.11  60 3.13  56 3.13  51 3.16
                            47 3.17  13 3.27   5 3.29   6 3.37  49 3.82
  58  0.956  0.427  0.650-  66 2.07  76 2.13  68 2.20  27 2.76  59 3.05  42 3.12  48 3.13  64 3.14
                            14 3.16   5 3.40  52 3.45
  59  0.131  0.621  0.638-  69 2.14  73 2.19  68 2.22  54 2.96  38 3.03  58 3.05  45 3.11  52 3.19
                             5 3.21  56 3.29  20 3.29
  60  0.147  0.092  0.451-  51 3.00  37 3.04  53 3.06  19 3.07  40 3.07   6 3.08  22 3.10  57 3.13
                            55 3.24  46 3.27  50 3.28  56 3.59
  61  0.731  0.606  0.367-   1 2.93  17 2.95   9 2.95  11 2.96  29 2.98  41 3.05  63 3.17  49 3.65

  62  0.727  0.133  0.542-  28 2.94   2 2.97  12 2.98  18 2.99  30 3.00  10 3.00   4 3.00  42 3.01
                             7 3.07  64 3.19   8 3.36  50 3.67
  63  0.869  0.592  0.458-  23 2.79  13 2.98   5 3.01  49 3.05   7 3.07  53 3.08  57 3.11  61 3.17
                            42 3.23  29 3.25  47 3.42  17 3.44  41 3.53
  64  0.856  0.135  0.638-  71 2.07  66 2.15  14 2.99   8 3.07  58 3.14  62 3.19  54 3.24  18 3.27
                            50 3.29  48 3.32  42 3.40  30 3.44
  65  0.369  0.876  0.630-  38 2.05  32 2.08  36 2.15  45 2.20  44 2.32
  66  0.976  0.227  0.676-  58 2.07  48 2.09  64 2.15
  67  0.252  0.125  0.633-  36 2.06  38 2.10  20 2.18  48 2.20  40 2.36
  68  0.975  0.655  0.657-  27 2.07  54 2.17  58 2.20  59 2.22
  69  0.259  0.528  0.667-  20 1.99  45 2.10  59 2.14
  70  0.397  0.284  0.667-  26 1.98  36 2.02  20 2.03
  71  0.741  0.039  0.673-   8 2.07  64 2.07  18 2.09
  72  0.509  0.021  0.671-  36 1.97  18 1.99  32 2.01
  73  0.129  0.824  0.675-  38 1.90  54 2.17  59 2.19
  74  0.612  0.304  0.666-  14 2.02  26 2.02  18 2.04
  75  0.506  0.621  0.641-   3 1.90  32 2.14  45 2.15  26 2.25
  76  0.819  0.491  0.678-  14 1.95  27 2.02  58 2.13
 
  LATTYP: Found a simple orthorhombic cell.
 ALAT       =     9.5644817352
 B/A-ratio  =     1.4398428730
 C/A-ratio  =     2.8922184390
  
  Lattice vectors:
  
 A1 = (   0.0000000000,  -9.5644817352,   0.0000000000)
 A2 = ( -13.7713508606,   0.0000000000,   0.0000000000)
 A3 = (   0.0000000000,   0.0000000000, -27.6625704340)


Analysis of symmetry for initial positions (statically):
=====================================================================
 Subroutine PRICEL returns:
 Original cell was already a primitive cell.
 

 Routine SETGRP: Setting up the symmetry group for a 
 simple orthorhombic supercell.


 Subroutine GETGRP returns: Found  1 space group operations
 (whereof  1 operations were pure point group operations)
 out of a pool of  8 trial point group operations.


The static configuration has the point symmetry C_1 .


Analysis of symmetry for dynamics (positions and initial velocities):
=====================================================================
 Subroutine PRICEL returns:
 Original cell was already a primitive cell.
 

 Routine SETGRP: Setting up the symmetry group for a 
 simple orthorhombic supercell.


 Subroutine GETGRP returns: Found  1 space group operations
 (whereof  1 operations were pure point group operations)
 out of a pool of  8 trial point group operations.


The dynamic configuration has the point symmetry C_1 .


Analysis of constrained symmetry for selective dynamics:
=====================================================================
 Subroutine PRICEL returns:
 Original cell was already a primitive cell.
 

 Routine SETGRP: Setting up the symmetry group for a 
 simple orthorhombic supercell.


 Subroutine GETGRP returns: Found  1 space group operations
 (whereof  1 operations were pure point group operations)
 out of a pool of  8 trial point group operations.


The constrained configuration has the point symmetry C_1 .


 Subroutine INISYM returns: Found  1 space group operations
 (whereof  1 operations are pure point group operations),
 and found     1 'primitive' translations

 
 
 KPOINTS: k-points                                

Automatic generation of k-mesh.
Space group operators:
 irot       det(A)        alpha          n_x          n_y          n_z        tau_x        tau_y        tau_z
    1     1.000000     0.000000     1.000000     0.000000     0.000000     0.000000     0.000000     0.000000
 
 Subroutine IBZKPT returns following result:
 ===========================================
 
 Found      5 irreducible k-points:
 
 Following reciprocal coordinates:
            Coordinates               Weight
  0.000000  0.000000  0.000000      1.000000
  0.333333  0.000000  0.000000      2.000000
  0.000000  0.333333  0.000000      2.000000
  0.333333  0.333333  0.000000      2.000000
 -0.333333  0.333333  0.000000      2.000000
 
 Following cartesian coordinates:
            Coordinates               Weight
  0.000000  0.000000  0.000000      1.000000
  0.024205  0.000000  0.000000      2.000000
  0.000000  0.034851  0.000000      2.000000
  0.024205  0.034851  0.000000      2.000000
 -0.024205  0.034851  0.000000      2.000000
 


--------------------------------------------------------------------------------------------------------




 Dimension of arrays:
   k-points           NKPTS =      5   k-points in BZ     NKDIM =      5   number of bands    NBANDS=    250
   number of dos      NEDOS =    301   number of ions     NIONS =     76
   non local maximal  LDIM  =      6   non local SUM 2l+1 LMDIM =     18
   total plane-waves  NPLWV = 846720
   max r-space proj   IRMAX =      1   max aug-charges    IRDMAX=  25433
   dimension x,y,z NGX =    84 NGY =   60 NGZ =  168
   dimension x,y,z NGXF=   168 NGYF=  120 NGZF=  336
   support grid    NGXF=   168 NGYF=  120 NGZF=  336
   ions per type =               6  10   4  18  26  12
 NGX,Y,Z   is equivalent  to a cutoff of  10.14, 10.43, 10.10 a.u.
 NGXF,Y,Z  is equivalent  to a cutoff of  20.28, 20.86, 20.19 a.u.


 I would recommend the setting:
   dimension x,y,z NGX =    83 NGY =   57 NGZ =  166
 SYSTEM =  (110) surface                           
 POSCAR =  Al Nb Ta Ti Zr                          

 Startparameter for this run:
   NWRITE =      2    write-flag & timer
   PREC   = normal    normal or accurate (medium, high low for compatibility)
   ISTART =      0    job   : 0-new  1-cont  2-samecut
   ICHARG =      2    charge: 1-file 2-atom 10-const
   ISPIN  =      1    spin polarized calculation?
   LNONCOLLINEAR =      F non collinear calculations
   LSORBIT =      F    spin-orbit coupling
   INIWAV =      1    electr: 0-lowe 1-rand  2-diag
   LASPH  =      F    aspherical Exc in radial PAW
   METAGGA=      F    non-selfconsistent MetaGGA calc.

 Electronic Relaxation 1
   ENCUT  =  600.0 eV  44.10 Ry    6.64 a.u.  27.50 19.10 55.25*2*pi/ulx,y,z
   ENINI  =  600.0     initial cutoff
   ENAUG  =  605.4 eV  augmentation charge cutoff
   NELM   =     60;   NELMIN=  2; NELMDL= -5     # of ELM steps 
   EDIFF  = 0.1E-03   stopping-criterion for ELM
   LREAL  =      F    real-space projection
   NLSPLINE    = F    spline interpolate recip. space projectors
   LCOMPAT=      F    compatible to vasp.4.4
   GGA_COMPAT  = T    GGA compatible to vasp.4.4-vasp.4.6
   LMAXPAW     = -100 max onsite density
   LMAXMIX     =    2 max onsite mixed and CHGCAR
   VOSKOWN=      0    Vosko Wilk Nusair interpolation
   ROPT   =    0.00000   0.00000   0.00000   0.00000
   ROPT   =    0.00000   0.00000
 Ionic relaxation
   EDIFFG = -.1E-01   stopping-criterion for IOM
   NSW    =    150    number of steps for IOM
   NBLOCK =      1;   KBLOCK =    150    inner block; outer block 
   IBRION =      2    ionic relax: 0-MD 1-quasi-New 2-CG
   NFREE  =      1    steps in history (QN), initial steepest desc. (CG)
   ISIF   =      2    stress and relaxation
   IWAVPR =     11    prediction:  0-non 1-charg 2-wave 3-comb
   ISYM   =      2    0-nonsym 1-usesym 2-fastsym
   LCORR  =      T    Harris-Foulkes like correction to forces

   POTIM  = 0.1000    time-step for ionic-motion
   TEIN   =    0.0    initial temperature
   TEBEG  =    0.0;   TEEND  =   0.0 temperature during run
   SMASS  =  -3.00    Nose mass-parameter (am)
   estimated Nose-frequenzy (Omega)   =  0.10E-29 period in steps =****** mass=  -0.433E-26a.u.
   SCALEE = 1.0000    scale energy and forces
   NPACO  =    256;   APACO  = 16.0  distance and # of slots for P.C.
   PSTRESS=    0.0 pullay stress

  Mass of Ions in am
   POMASS =  26.98 92.91180.95 47.88 91.22 16.00
  Ionic Valenz
   ZVAL   =   3.00 13.00  5.00  4.00  4.00  6.00
  Atomic Wigner-Seitz radii
   RWIGS  =  -1.00 -1.00 -1.00 -1.00 -1.00 -1.00
  virtual crystal weights 
   VCA    =   1.00  1.00  1.00  1.00  1.00  1.00
   NELECT =     416.0000    total number of electrons
   NUPDOWN=      -1.0000    fix difference up-down

 DOS related values:
   EMIN   =  10.00;   EMAX   =-10.00  energy-range for DOS
   EFERMI =   0.00
   ISMEAR =     2;   SIGMA  =   0.10  broadening in eV -4-tet -1-fermi 0-gaus

 Electronic relaxation 2 (details)
   IALGO  =     68    algorithm
   LDIAG  =      T    sub-space diagonalisation (order eigenvalues)
   LSUBROT=      F    optimize rotation matrix (better conditioning)
   TURBO    =      0    0=normal 1=particle mesh
   IRESTART =      0    0=no restart 2=restart with 2 vectors
   NREBOOT  =      0    no. of reboots
   NMIN     =      0    reboot dimension
   EREF     =   0.00    reference energy to select bands
   IMIX   =      4    mixing-type and parameters
     AMIX     =   0.40;   BMIX     =  1.00
     AMIX_MAG =   1.60;   BMIX_MAG =  1.00
     AMIN     =   0.10
     WC   =   100.;   INIMIX=   1;  MIXPRE=   1;  MAXMIX= -45

 Intra band minimization:
   WEIMIN = 0.0010     energy-eigenvalue tresh-hold
   EBREAK =  0.10E-06  absolut break condition
   DEPER  =   0.30     relativ break condition  

   TIME   =   0.40     timestep for ELM

  volume/ion in A,a.u.               =      47.94       323.53
  Fermi-wavevector in a.u.,A,eV,Ry     =   0.794199  1.500818  8.581893  0.630751
  Thomas-Fermi vector in A             =   1.900284
 
 Write flags
   LWAVE  =      F    write WAVECAR
   LCHARG =      F    write CHGCAR
   LVTOT  =      F    write LOCPOT, total local potential
   LVHAR  =      F    write LOCPOT, Hartree potential only
   LELF   =      F    write electronic localiz. function (ELF)
   LORBIT =      0    0 simple, 1 ext, 2 COOP (PROOUT)


 Dipole corrections
   LMONO  =      F    monopole corrections only (constant potential shift)
   LDIPOL =      F    correct potential (dipole corrections)
   IDIPOL =      0    1-x, 2-y, 3-z, 4-all directions 
   EPSILON=  1.0000000 bulk dielectric constant

 Exchange correlation treatment:
   GGA     =    --    GGA type
   LEXCH   =     8    internal setting for exchange type
   VOSKOWN=      0    Vosko Wilk Nusair interpolation
   LHFCALC =     F    Hartree Fock is set to
   LHFONE  =     F    Hartree Fock one center treatment
   AEXX    =    0.0000 exact exchange contribution

 Linear response parameters
   LEPSILON=     F    determine dielectric tensor
   LRPA    =     F    only Hartree local field effects (RPA)
   LNABLA  =     F    use nabla operator in PAW spheres
   LVEL    =     F    velocity operator in full k-point grid
   LINTERFAST=   F  fast interpolation
   KINTER  =     0    interpolate to denser k-point grid
   CSHIFT  =0.1000    complex shift for real part using Kramers Kronig
   OMEGAMAX=  -1.0    maximum frequency
   DEG_THRESHOLD= 0.2000000E-02 threshold for treating states as degnerate
   RTIME   =    0.100 relaxation time in fs

 Orbital magnetization related:
   ORBITALMAG=     F  switch on orbital magnetization
   LCHIMAG   =     F  perturbation theory with respect to B field
   DQ        =  0.001000  dq finite difference perturbation B field



--------------------------------------------------------------------------------------------------------


 conjugate gradient relaxation of ions
   using selective dynamics as specified on POSCAR
 charge density and potential will be updated during run
 non-spin polarized calculation
 RMM-DIIS sequential band-by-band and
  variant of blocked Davidson during initial phase
 perform sub-space diagonalisation
    before iterative eigenvector-optimisation
 modified Broyden-mixing scheme, WC =      100.0
 initial mixing is a Kerker type mixing with AMIX =  0.4000 and BMIX =      1.0000
 Hartree-type preconditioning will be used
 using additional bands           42
 reciprocal scheme for non local part
 use partial core corrections
 calculate Harris-corrections to forces 
   (improved forces if not selfconsistent)
 use gradient corrections 
 use of overlap-Matrix (Vanderbilt PP)
 Methfessel and Paxton  Order N= 2 SIGMA  =   0.10


--------------------------------------------------------------------------------------------------------


  energy-cutoff  :      600.00
  volume of cell :     3643.60
      direct lattice vectors                 reciprocal lattice vectors
    13.771350861  0.000000000  0.000000000     0.072614518  0.000000000  0.000000000
     0.000000000  9.564481735  0.000000000     0.000000000  0.104553496  0.000000000
     0.000000000  0.000000000 27.662570434     0.000000000  0.000000000  0.036149931

  length of vectors
    13.771350861  9.564481735 27.662570434     0.072614518  0.104553496  0.036149931


 
 k-points in units of 2pi/SCALE and weight: k-points                                
   0.00000000  0.00000000  0.00000000       0.111
   0.02420484  0.00000000  0.00000000       0.222
   0.00000000  0.03485117  0.00000000       0.222
   0.02420484  0.03485117  0.00000000       0.222
  -0.02420484  0.03485117  0.00000000       0.222
 
 k-points in reciprocal lattice and weights: k-points                                
   0.00000000  0.00000000  0.00000000       0.111
   0.33333333  0.00000000  0.00000000       0.222
   0.00000000  0.33333333  0.00000000       0.222
   0.33333333  0.33333333  0.00000000       0.222
  -0.33333333  0.33333333  0.00000000       0.222
 
 position of ions in fractional coordinates (direct lattice) 
   0.62276447  0.86746430  0.37590333
   0.61936899  0.40178451  0.54575638
   0.63193739  0.62518184  0.61327565
   0.61839700  0.08363760  0.44965952
   0.97430228  0.64059271  0.55197167
   0.97963780  0.12056648  0.37767599
   0.72857308  0.34338307  0.45816820
   0.72729543  0.87527619  0.62489675
   0.51739597  0.60805875  0.36719826
   0.50970762  0.13927702  0.54541697
   0.61811078  0.34297293  0.36889183
   0.61414356  0.86732027  0.54198034
   0.74231148  0.84345710  0.46199300
   0.73043975  0.38902080  0.63493634
   0.39405298  0.84738672  0.36896032
   0.38749975  0.37191027  0.54587125
   0.61928761  0.60162497  0.45752798
   0.61930314  0.10991063  0.63541487
   0.27944195  0.83362269  0.45088327
   0.27584067  0.34947685  0.63157848
   0.27665448  0.59444523  0.53097969
   0.28324246  0.07725573  0.36149931
   0.74464499  0.63753885  0.53635544
   0.74002355  0.11549973  0.36646499
   0.49591756  0.83582580  0.45790018
   0.49804980  0.38840822  0.63029355
   0.83517329  0.65046758  0.63050551
   0.84724605  0.11017048  0.45460239
   0.85243583  0.34907103  0.37639265
   0.85105185  0.87631391  0.55161554
   0.52175105  0.33942658  0.46105252
   0.51803474  0.84278476  0.63218257
   0.49456895  0.62925599  0.53586132
   0.49943882  0.10200214  0.36464270
   0.40016663  0.58028412  0.45130253
   0.40001024  0.09649782  0.63304074
   0.25505811  0.36595738  0.46399110
   0.22247648  0.90906336  0.63444828
   0.25182599  0.61397660  0.37627308
   0.25101819  0.13935971  0.54767267
   0.86539888  0.85904646  0.37036829
   0.86649792  0.37553321  0.54785383
   0.38059813  0.35186696  0.37331264
   0.37593018  0.87995299  0.54557286
   0.35431661  0.64758676  0.62506750
   0.38408008  0.10357511  0.45579618
   0.11657381  0.61110574  0.46457054
   0.09541942  0.17234332  0.63354471
   0.99629861  0.59295863  0.36811234
   0.99377659  0.10976836  0.54117513
   0.11869311  0.87196302  0.37467704
   0.11327030  0.39648754  0.55342693
   0.99977952  0.33051389  0.45306987
   0.00037044  0.86677100  0.63241438
   0.14482272  0.33176249  0.36788561
   0.13736923  0.83548322  0.54522175
   0.97888047  0.87608504  0.46520830
   0.95629534  0.42715007  0.64997434
   0.13055783  0.62139466  0.63803465
   0.14721048  0.09173214  0.45072276
   0.73135245  0.60578495  0.36679988
   0.72746397  0.13296294  0.54208253
   0.86923259  0.59196168  0.45825814
   0.85619213  0.13454587  0.63810463
   0.36928168  0.87648482  0.62950131
   0.97641357  0.22693934  0.67624357
   0.25163575  0.12456730  0.63294960
   0.97537819  0.65492381  0.65718960
   0.25869566  0.52834106  0.66745810
   0.39728617  0.28372269  0.66652950
   0.74089564  0.03924755  0.67328114
   0.50919757  0.02104543  0.67064389
   0.12915142  0.82380592  0.67527638
   0.61185393  0.30399923  0.66602578
   0.50575223  0.62138926  0.64108932
   0.81884637  0.49094887  0.67750279
 
 position of ions in cartesian coordinates  (Angst):
   8.57630799  8.29684649 10.39845223
   8.52954770  3.84286062 15.09702436
   8.70263153  5.97954029 16.96478089
   8.51616202  0.79995025 12.43873821
  13.41745859  6.12693729 15.26895527
  13.49093588  1.15315590 10.44748880
  10.03343557  3.28428114 12.67411000
  10.01584059  8.37156316 17.28625043
   7.12524148  5.81576681 10.15764776
   7.01936240  1.33211252 15.08763536
   8.51222037  3.28035836 10.20449636
   8.45758640  8.29546891 14.99256923
  10.22263181  8.06723005 12.77991378
  10.05914201  3.72078236 17.56397118
   5.42664188  8.10481479 10.20639088
   5.33639500  3.55712901 15.10020202
   8.52842696  5.75423100 12.65640004
   8.52864082  1.05123822 17.57720870
   3.84829318  7.97316903 12.47259035
   3.79869864  3.34256499 17.47108425
   3.80990591  5.68556056 14.68826301
   3.90063135  0.73891098 10.00000000
  10.25476746  6.09772866 14.83697013
  10.19112400  1.10469510 10.13736353
   6.82945470  7.99424061 12.66669595
   6.85881853  3.71492336 17.43553960
  11.50146435  6.22138530 17.44140319
  11.66772263  1.05372358 12.57547056
  11.73919286  3.33868345 10.41198829
  11.72013357  8.38148840 15.25910369
   7.18521672  3.24643930 12.75389771
   7.13403818  8.06079948 17.48779495
   6.81088253  6.01850747 14.82330149
   6.87794726  0.97559764 10.08695433
   5.51083508  5.55011685 12.48418803
   5.50868138  0.92295168 17.51153393
   3.51249472  3.50019267 12.83518635
   3.06380172  8.69471989 17.55047028
   3.46798404  5.87236796 10.40868071
   3.45685952  1.33290337 15.15003391
  11.91771166  8.21633417 10.24533883
  11.93284691  3.59178053 15.15504523
   5.24135036  3.36542512 10.32678719
   5.17706640  8.41629426 15.09194768
   4.87941831  6.19383177 17.29097371
   5.28930157  0.99064225 12.60849381
   1.60537885  5.84490969 12.85121538
   1.31405429  1.64837451 17.52547519
  13.72037774  5.67134198 10.18293350
  13.68564610  1.04987744 14.97029507
   1.63456451  8.33987442 10.36453009
   1.55988506  3.79219781 15.30921152
  13.76831459  3.16119411 12.53307716
   0.00510142  8.29021539 17.49420732
   1.99440444  3.17313630 10.17666150
   1.89175983  7.99096397 15.08223514
  13.48050634  8.37929939 12.86885734
  13.16947866  4.08546904 17.97996097
   1.79795773  5.94331791 17.64967844
   2.02728715  0.87737042 12.46815015
  10.07171117  5.79401911 10.14662739
  10.01816162  1.27172158 14.99539606
  11.97050705  5.66180669 12.67659812
  11.79092223  1.28686155 17.65161419
   5.08550761  8.38312307 17.41362428
  13.44653391  2.17055719 18.70663546
   3.46536427  1.19142168 17.50901282
  13.43227523  6.26400682 18.17955372
   3.56258868  5.05330842 18.46360666
   5.47116721  2.71366053 18.43791936
  10.20313378  0.37538243 18.62468706
   7.01233836  0.20128867 18.55173393
   1.77858957  7.87927663 18.67988044
   8.42605513  2.90759504 18.42398508
   6.96489135  5.94326625 17.73417841
  11.27662072  4.69567145 18.74146858
 


--------------------------------------------------------------------------------------------------------


 k-point  1 :   0.0000 0.0000 0.0000  plane waves:  121663
 k-point  2 :   0.3333 0.0000 0.0000  plane waves:  121577
 k-point  3 :   0.0000 0.3333 0.0000  plane waves:  121622
 k-point  4 :   0.3333 0.3333 0.0000  plane waves:  121647
 k-point  5 :  -0.3333 0.3333 0.0000  plane waves:  121647

 maximum and minimum number of plane-waves per node :      2568     2510

 maximum number of plane-waves:    121663
 maximum index in each direction: 
   IXMAX=   27   IYMAX=   19   IZMAX=   55
   IXMIN=  -27   IYMIN=  -19   IZMIN=  -55

 WARNING: aliasing errors must be expected set NGX to 110 to avoid them
 WARNING: aliasing errors must be expected set NGY to  78 to avoid them
 WARNING: aliasing errors must be expected set NGZ to 222 to avoid them
 aliasing errors are usually negligible using standard VASP settings
 and one can safely disregard these warnings

 parallel 3D FFT for wavefunctions:
    minimum data exchange during FFTs selected (reduces bandwidth)
 parallel 3D FFT for charge:
    minimum data exchange during FFTs selected (reduces bandwidth)


 total amount of memory used by VASP on root node    80987. kBytes
========================================================================

   base      :      30000. kBytes
   nonl-proj :      14039. kBytes
   fftplans  :       3278. kBytes
   grid      :       7939. kBytes
   one-center:         31. kBytes
   wavefun   :      25700. kBytes
 
     INWAV:  cpu time    0.0000: real time    0.0000
 Broyden mixing: mesh for mixing (old mesh)
   NGX = 55   NGY = 39   NGZ =111
  (NGX  =168   NGY  =120   NGZ  =336)
  gives a total of 238095 points

 initial charge density was supplied:
 charge density of overlapping atoms calculated
 number of electron     416.0000000 magnetization 
 keeping initial charge density in first step


--------------------------------------------------------------------------------------------------------


 Maximum index for augmentation-charges         1035 (set IRDMAX)


--------------------------------------------------------------------------------------------------------


 First call to EWALD:  gamma=   0.115
 Maximum number of real-space cells 3x 4x 2
 Maximum number of reciprocal cells 3x 2x 5

 FEWALD executed in parallel
    FEWALD:  cpu time    0.0024: real time    0.0024


----------------------------------------- Iteration    1(   1)  ---------------------------------------


    POTLOK:  cpu time    0.0588: real time    0.0592
    SETDIJ:  cpu time    0.0126: real time    0.0132
     EDDAV:  cpu time   10.5796: real time   10.5923
       DOS:  cpu time    0.0016: real time    0.0016
    --------------------------------------------
      LOOP:  cpu time   10.6560: real time   10.6721

 eigenvalue-minimisations  :  2636
 total energy-change (2. order) : 0.5094654E+04  (-0.1558500E+05)
 number of electron     416.0000000 magnetization 
 augmentation part      416.0000000 magnetization 

 Free energy of the ion-electron system (eV)
  ---------------------------------------------------
  alpha Z        PSCENC =       645.52153287
  Ewald energy   TEWEN  =     90885.70350900
  -Hartree energ DENC   =   -113649.66397101
  -exchange      EXHF   =         0.00000000
  -V(xc)+E(xc)   XCENC  =     -2755.03537153
  PAW double counting   =     23597.87484585   -19528.22511459
  entropy T*S    EENTRO =        -0.00525109
  eigenvalues    EBANDS =       584.13734158
  atomic energy  EATOM  =     25314.34632587
  Solvation  Ediel_sol  =         0.00000000
  ---------------------------------------------------
  free energy    TOTEN  =      5094.65384695 eV

  energy without entropy =     5094.65909804  energy(sigma->0) =     5094.65515972


--------------------------------------------------------------------------------------------------------




----------------------------------------- Iteration    1(   2)  ---------------------------------------


     EDDAV:  cpu time   10.7455: real time   10.7538
       DOS:  cpu time    0.0016: real time    0.0016
    --------------------------------------------
      LOOP:  cpu time   10.7485: real time   10.7583

 eigenvalue-minimisations  :  2708
 total energy-change (2. order) :-0.4457675E+04  (-0.4325610E+04)
 number of electron     416.0000000 magnetization 
 augmentation part      416.0000000 magnetization 

 Free energy of the ion-electron system (eV)
  ---------------------------------------------------
  alpha Z        PSCENC =       645.52153287
  Ewald energy   TEWEN  =     90885.70350900
  -Hartree energ DENC   =   -113649.66397101
  -exchange      EXHF   =         0.00000000
  -V(xc)+E(xc)   XCENC  =     -2755.03537153
  PAW double counting   =     23597.87484585   -19528.22511459
  entropy T*S    EENTRO =        -0.00142970
  eigenvalues    EBANDS =     -3873.54166394
  atomic energy  EATOM  =     25314.34632587
  Solvation  Ediel_sol  =         0.00000000
  ---------------------------------------------------
  free energy    TOTEN  =       636.97866283 eV

  energy without entropy =      636.98009252  energy(sigma->0) =      636.97902025


--------------------------------------------------------------------------------------------------------




----------------------------------------- Iteration    1(   3)  ---------------------------------------


     EDDAV:  cpu time   16.4918: real time   16.4974
       DOS:  cpu time    0.0015: real time    0.0015
    --------------------------------------------
      LOOP:  cpu time   16.4945: real time   16.5018

 eigenvalue-minimisations  :  4608
 total energy-change (2. order) :-0.1166542E+04  (-0.1131056E+04)
 number of electron     416.0000000 magnetization 
 augmentation part      416.0000000 magnetization 

 Free energy of the ion-electron system (eV)
  ---------------------------------------------------
  alpha Z        PSCENC =       645.52153287
  Ewald energy   TEWEN  =     90885.70350900
  -Hartree energ DENC   =   -113649.66397101
  -exchange      EXHF   =         0.00000000
  -V(xc)+E(xc)   XCENC  =     -2755.03537153
  PAW double counting   =     23597.87484585   -19528.22511459
  entropy T*S    EENTRO =         0.00190308
  eigenvalues    EBANDS =     -5040.08664632
  atomic energy  EATOM  =     25314.34632587
  Solvation  Ediel_sol  =         0.00000000
  ---------------------------------------------------
  free energy    TOTEN  =      -529.56298677 eV

  energy without entropy =     -529.56488985  energy(sigma->0) =     -529.56346254


--------------------------------------------------------------------------------------------------------




----------------------------------------- Iteration    1(   4)  ---------------------------------------


     EDDAV:  cpu time   14.3097: real time   14.3111
       DOS:  cpu time    0.0015: real time    0.0015
    --------------------------------------------
      LOOP:  cpu time   14.3126: real time   14.3157

 eigenvalue-minimisations  :  3888
 total energy-change (2. order) :-0.1742572E+03  (-0.1683867E+03)
 number of electron     416.0000000 magnetization 
 augmentation part      416.0000000 magnetization 

 Free energy of the ion-electron system (eV)
  ---------------------------------------------------
  alpha Z        PSCENC =       645.52153287
  Ewald energy   TEWEN  =     90885.70350900
  -Hartree energ DENC   =   -113649.66397101
  -exchange      EXHF   =         0.00000000
  -V(xc)+E(xc)   XCENC  =     -2755.03537153
  PAW double counting   =     23597.87484585   -19528.22511459
  entropy T*S    EENTRO =         0.00252310
  eigenvalues    EBANDS =     -5214.34443025
  atomic energy  EATOM  =     25314.34632587
  Solvation  Ediel_sol  =         0.00000000
  ---------------------------------------------------
  free energy    TOTEN  =      -703.82015069 eV

  energy without entropy =     -703.82267379  energy(sigma->0) =     -703.82078146


--------------------------------------------------------------------------------------------------------




----------------------------------------- Iteration    1(   5)  ---------------------------------------


     EDDAV:  cpu time   16.6484: real time   16.6622
       DOS:  cpu time    0.0016: real time    0.0016
    CHARGE:  cpu time    0.2337: real time    0.2347
    MIXING:  cpu time    0.0052: real time    0.0052
    --------------------------------------------
      LOOP:  cpu time   16.8902: real time   16.9067

 eigenvalue-minimisations  :  4664
 total energy-change (2. order) :-0.1675515E+02  (-0.1634121E+02)
 number of electron     416.0000014 magnetization 
 augmentation part       49.5593828 magnetization 

 Broyden mixing:
  rms(total) = 0.74619E+01    rms(broyden)= 0.74618E+01
  rms(prec ) = 0.79371E+01
  weight for this iteration     100.00

 Free energy of the ion-electron system (eV)
  ---------------------------------------------------
  alpha Z        PSCENC =       645.52153287
  Ewald energy   TEWEN  =     90885.70350900
  -Hartree energ DENC   =   -113649.66397101
  -exchange      EXHF   =         0.00000000
  -V(xc)+E(xc)   XCENC  =     -2755.03537153
  PAW double counting   =     23597.87484585   -19528.22511459
  entropy T*S    EENTRO =         0.00057081
  eigenvalues    EBANDS =     -5231.09763146
  atomic energy  EATOM  =     25314.34632587
  Solvation  Ediel_sol  =         0.00000000
  ---------------------------------------------------
  free energy    TOTEN  =      -720.57530418 eV

  energy without entropy =     -720.57587500  energy(sigma->0) =     -720.57544689


--------------------------------------------------------------------------------------------------------




----------------------------------------- Iteration    1(   6)  ---------------------------------------


    POTLOK:  cpu time    0.0491: real time    0.0491
    SETDIJ:  cpu time    0.0068: real time    0.0068
    EDDIAG:  cpu time    0.9452: real time    0.9563
  RMM-DIIS:  cpu time   10.1041: real time   10.1044
    ORTHCH:  cpu time    0.2682: real time    0.2765
       DOS:  cpu time    0.0016: real time    0.0016
    CHARGE:  cpu time    0.2303: real time    0.2303
    MIXING:  cpu time    0.0031: real time    0.0031
    --------------------------------------------
      LOOP:  cpu time   11.6102: real time   11.6325

 eigenvalue-minimisations  :  3905
 total energy-change (2. order) :-0.4020322E+02  (-0.1557484E+03)
 number of electron     416.0000009 magnetization 
 augmentation part       63.2337727 magnetization 

 Broyden mixing:
  rms(total) = 0.45809E+01    rms(broyden)= 0.45807E+01
  rms(prec ) = 0.61529E+01
  weight for this iteration     100.00

 eigenvalues of (default mixing * dielectric matrix)
  average eigenvalue GAMMA=   0.7824
  0.7824

 Free energy of the ion-electron system (eV)
  ---------------------------------------------------
  alpha Z        PSCENC =       645.52153287
  Ewald energy   TEWEN  =     90885.70350900
  -Hartree energ DENC   =   -114454.42717129
  -exchange      EXHF   =         0.00000000
  -V(xc)+E(xc)   XCENC  =     -2726.50927191
  PAW double counting   =     27961.38681830   -23898.22743479
  entropy T*S    EENTRO =        -0.00350973
  eigenvalues    EBANDS =     -4488.56931824
  atomic energy  EATOM  =     25314.34632587
  Solvation  Ediel_sol  =         0.00000000
  ---------------------------------------------------
  free energy    TOTEN  =      -760.77851991 eV

  energy without entropy =     -760.77501018  energy(sigma->0) =     -760.77764248


--------------------------------------------------------------------------------------------------------




----------------------------------------- Iteration    1(   7)  ---------------------------------------


    POTLOK:  cpu time    0.0487: real time    0.0487
    SETDIJ:  cpu time    0.0066: real time    0.0066
    EDDIAG:  cpu time    0.9396: real time    0.9450
  RMM-DIIS:  cpu time    8.9990: real time    8.9991
    ORTHCH:  cpu time    0.2545: real time    0.2754
       DOS:  cpu time    0.0016: real time    0.0016
    CHARGE:  cpu time    0.2316: real time    0.2316
    MIXING:  cpu time    0.0020: real time    0.0020
    --------------------------------------------
      LOOP:  cpu time   10.4853: real time   10.5142

 eigenvalue-minimisations  :  3471
 total energy-change (2. order) : 0.2285521E+02  (-0.3954109E+02)
 number of electron     416.0000019 magnetization 
 augmentation part       60.8797291 magnetization 

 Broyden mixing:
  rms(total) = 0.41935E+01    rms(broyden)= 0.41935E+01
  rms(prec ) = 0.72634E+01
  weight for this iteration     100.00

 eigenvalues of (default mixing * dielectric matrix)
  average eigenvalue GAMMA=   0.6738
  1.0058  0.3418

 Free energy of the ion-electron system (eV)
  ---------------------------------------------------
  alpha Z        PSCENC =       645.52153287
  Ewald energy   TEWEN  =     90885.70350900
  -Hartree energ DENC   =   -113902.81900980
  -exchange      EXHF   =         0.00000000
  -V(xc)+E(xc)   XCENC  =     -2730.44455631
  PAW double counting   =     28634.38309662   -24582.24012064
  entropy T*S    EENTRO =        -0.00444953
  eigenvalues    EBANDS =     -5002.36963587
  atomic energy  EATOM  =     25314.34632587
  Solvation  Ediel_sol  =         0.00000000
  ---------------------------------------------------
  free energy    TOTEN  =      -737.92330778 eV

  energy without entropy =     -737.91885825  energy(sigma->0) =     -737.92219540


--------------------------------------------------------------------------------------------------------




----------------------------------------- Iteration    1(   8)  ---------------------------------------


    POTLOK:  cpu time    0.0490: real time    0.0490
    SETDIJ:  cpu time    0.0065: real time    0.0065
    EDDIAG:  cpu time    0.9546: real time    0.9612
  RMM-DIIS:  cpu time    9.7446: real time    9.7447
    ORTHCH:  cpu time    0.2737: real time    0.2759
       DOS:  cpu time    0.0015: real time    0.0015
    CHARGE:  cpu time    0.2310: real time    0.2310
    MIXING:  cpu time    0.0020: real time    0.0020
    --------------------------------------------
      LOOP:  cpu time   11.2648: real time   11.2762

 eigenvalue-minimisations  :  3758
 total energy-change (2. order) : 0.6992036E+02  (-0.2014044E+02)
 number of electron     416.0000014 magnetization 
 augmentation part       52.2760848 magnetization 

 Broyden mixing:
  rms(total) = 0.31529E+01    rms(broyden)= 0.31528E+01
  rms(prec ) = 0.47231E+01
  weight for this iteration     100.00

 eigenvalues of (default mixing * dielectric matrix)
  average eigenvalue GAMMA=   0.6590
  1.3063  0.4474  0.2232

 Free energy of the ion-electron system (eV)
  ---------------------------------------------------
  alpha Z        PSCENC =       645.52153287
  Ewald energy   TEWEN  =     90885.70350900
  -Hartree energ DENC   =   -114159.03035296
  -exchange      EXHF   =         0.00000000
  -V(xc)+E(xc)   XCENC  =     -2731.67714875
  PAW double counting   =     29505.45780367   -25457.37687284
  entropy T*S    EENTRO =        -0.00782039
  eigenvalues    EBANDS =     -4670.93992023
  atomic energy  EATOM  =     25314.34632587
  Solvation  Ediel_sol  =         0.00000000
  ---------------------------------------------------
  free energy    TOTEN  =      -668.00294374 eV

  energy without entropy =     -667.99512335  energy(sigma->0) =     -668.00098864


--------------------------------------------------------------------------------------------------------




----------------------------------------- Iteration    1(   9)  ---------------------------------------


    POTLOK:  cpu time    0.0488: real time    0.0488
    SETDIJ:  cpu time    0.0067: real time    0.0067
    EDDIAG:  cpu time    0.9595: real time    0.9633
  RMM-DIIS:  cpu time    8.5325: real time    8.5325
    ORTHCH:  cpu time    0.2742: real time    0.2770
       DOS:  cpu time    0.0017: real time    0.0017
    CHARGE:  cpu time    0.2310: real time    0.2310
    MIXING:  cpu time    0.0020: real time    0.0020
    --------------------------------------------
      LOOP:  cpu time   10.0579: real time   10.0670

 eigenvalue-minimisations  :  3273
 total energy-change (2. order) : 0.3263463E+02  (-0.5720198E+01)
 number of electron     416.0000011 magnetization 
 augmentation part       53.9621243 magnetization 

 Broyden mixing:
  rms(total) = 0.17714E+01    rms(broyden)= 0.17714E+01
  rms(prec ) = 0.20769E+01
  weight for this iteration     100.00

 eigenvalues of (default mixing * dielectric matrix)
  average eigenvalue GAMMA=   0.7248
  1.6511  0.5211  0.5211  0.2058

 Free energy of the ion-electron system (eV)
  ---------------------------------------------------
  alpha Z        PSCENC =       645.52153287
  Ewald energy   TEWEN  =     90885.70350900
  -Hartree energ DENC   =   -114153.53719299
  -exchange      EXHF   =         0.00000000
  -V(xc)+E(xc)   XCENC  =     -2728.52322637
  PAW double counting   =     30497.70725386   -26443.36827939
  entropy T*S    EENTRO =         0.00365265
  eigenvalues    EBANDS =     -4653.22188536
  atomic energy  EATOM  =     25314.34632587
  Solvation  Ediel_sol  =         0.00000000
  ---------------------------------------------------
  free energy    TOTEN  =      -635.36830986 eV

  energy without entropy =     -635.37196251  energy(sigma->0) =     -635.36922303


--------------------------------------------------------------------------------------------------------




----------------------------------------- Iteration    1(  10)  ---------------------------------------


    POTLOK:  cpu time    0.0491: real time    0.0491
    SETDIJ:  cpu time    0.0066: real time    0.0066
    EDDIAG:  cpu time    0.9651: real time    0.9691
  RMM-DIIS:  cpu time    9.4402: real time    9.4402
    ORTHCH:  cpu time    0.2726: real time    0.2753
       DOS:  cpu time    0.0016: real time    0.0016
    CHARGE:  cpu time    0.2307: real time    0.2307
    MIXING:  cpu time    0.0024: real time    0.0024
    --------------------------------------------
      LOOP:  cpu time   10.9700: real time   10.9791

 eigenvalue-minimisations  :  3603
 total energy-change (2. order) : 0.3873786E+01  (-0.4236485E+01)
 number of electron     416.0000013 magnetization 
 augmentation part       57.0771342 magnetization 

 Broyden mixing:
  rms(total) = 0.11363E+01    rms(broyden)= 0.11363E+01
  rms(prec ) = 0.15783E+01
  weight for this iteration     100.00

 eigenvalues of (default mixing * dielectric matrix)
  average eigenvalue GAMMA=   0.7291
  1.8707  0.6198  0.6198  0.3415  0.1937

 Free energy of the ion-electron system (eV)
  ---------------------------------------------------
  alpha Z        PSCENC =       645.52153287
  Ewald energy   TEWEN  =     90885.70350900
  -Hartree energ DENC   =   -114235.34147388
  -exchange      EXHF   =         0.00000000
  -V(xc)+E(xc)   XCENC  =     -2723.75029910
  PAW double counting   =     31335.06095532   -27274.30159169
  entropy T*S    EENTRO =         0.00389201
  eigenvalues    EBANDS =     -4578.73737461
  atomic energy  EATOM  =     25314.34632587
  Solvation  Ediel_sol  =         0.00000000
  ---------------------------------------------------
  free energy    TOTEN  =      -631.49452420 eV

  energy without entropy =     -631.49841621  energy(sigma->0) =     -631.49549721


--------------------------------------------------------------------------------------------------------




----------------------------------------- Iteration    1(  11)  ---------------------------------------


    POTLOK:  cpu time    0.0492: real time    0.0492
    SETDIJ:  cpu time    0.0066: real time    0.0066
    EDDIAG:  cpu time    0.9655: real time    0.9696
  RMM-DIIS:  cpu time    9.8658: real time    9.8659
    ORTHCH:  cpu time    0.2753: real time    0.2768
       DOS:  cpu time    0.0018: real time    0.0018
    CHARGE:  cpu time    0.2305: real time    0.2306
    MIXING:  cpu time    0.0023: real time    0.0023
    --------------------------------------------
      LOOP:  cpu time   11.3987: real time   11.4071

 eigenvalue-minimisations  :  3816
 total energy-change (2. order) : 0.7971432E+00  (-0.2565406E+01)
 number of electron     416.0000013 magnetization 
 augmentation part       57.3156400 magnetization 

 Broyden mixing:
  rms(total) = 0.10781E+01    rms(broyden)= 0.10780E+01
  rms(prec ) = 0.14162E+01
  weight for this iteration     100.00

 eigenvalues of (default mixing * dielectric matrix)
  average eigenvalue GAMMA=   0.6886
  1.9200  0.7867  0.5459  0.4257  0.1925  0.2605

 Free energy of the ion-electron system (eV)
  ---------------------------------------------------
  alpha Z        PSCENC =       645.52153287
  Ewald energy   TEWEN  =     90885.70350900
  -Hartree energ DENC   =   -114283.44015207
  -exchange      EXHF   =         0.00000000
  -V(xc)+E(xc)   XCENC  =     -2721.53457391
  PAW double counting   =     31985.71575209   -27922.38932974
  entropy T*S    EENTRO =        -0.01289228
  eigenvalues    EBANDS =     -4534.60755281
  atomic energy  EATOM  =     25314.34632587
  Solvation  Ediel_sol  =         0.00000000
  ---------------------------------------------------
  free energy    TOTEN  =      -630.69738097 eV

  energy without entropy =     -630.68448869  energy(sigma->0) =     -630.69415790


--------------------------------------------------------------------------------------------------------




----------------------------------------- Iteration    1(  12)  ---------------------------------------


    POTLOK:  cpu time    0.0491: real time    0.0491
    SETDIJ:  cpu time    0.0066: real time    0.0066
    EDDIAG:  cpu time    0.9672: real time    0.9705
  RMM-DIIS:  cpu time    9.3585: real time    9.3586
    ORTHCH:  cpu time    0.2734: real time    0.2750
       DOS:  cpu time    0.0016: real time    0.0016
    CHARGE:  cpu time    0.2313: real time    0.2313
    MIXING:  cpu time    0.0025: real time    0.0025
    --------------------------------------------
      LOOP:  cpu time   10.8920: real time   10.8993

 eigenvalue-minimisations  :  3598
 total energy-change (2. order) : 0.2393457E+01  (-0.9415978E+00)
 number of electron     416.0000014 magnetization 
 augmentation part       57.2890062 magnetization 

 Broyden mixing:
  rms(total) = 0.56333E+00    rms(broyden)= 0.56333E+00
  rms(prec ) = 0.75642E+00
  weight for this iteration     100.00

 eigenvalues of (default mixing * dielectric matrix)
  average eigenvalue GAMMA=   0.6857
  1.9810  0.9755  0.5385  0.5385  0.3445  0.1949  0.2269

 Free energy of the ion-electron system (eV)
  ---------------------------------------------------
  alpha Z        PSCENC =       645.52153287
  Ewald energy   TEWEN  =     90885.70350900
  -Hartree energ DENC   =   -114301.00785840
  -exchange      EXHF   =         0.00000000
  -V(xc)+E(xc)   XCENC  =     -2720.78303661
[...]
      direct lattice vectors                 reciprocal lattice vectors
    13.771350861  0.000000000  0.000000000     0.072614518  0.000000000  0.000000000
     0.000000000  9.564481735  0.000000000     0.000000000  0.104553496  0.000000000
     0.000000000  0.000000000 27.662570434     0.000000000  0.000000000  0.036149931

  length of vectors
    13.771350861  9.564481735 27.662570434     0.072614518  0.104553496  0.036149931


 FORCES acting on ions
    electron-ion (+dipol)            ewald-force                    non-local-force                 convergence-correction
 -----------------------------------------------------------------------------------------------
   -.483E+02 -.352E+02 0.429E+03   0.481E+02 0.349E+02 -.428E+03   0.102E+00 0.924E-01 -.800E+00   0.131E-01 0.183E-02 0.198E-01
   -.310E+02 -.271E+02 -.278E+02   0.306E+02 0.273E+02 0.270E+02   0.392E+00 -.143E+00 0.732E+00   0.494E-02 0.953E-03 0.254E-01
   -.227E+02 0.162E+02 -.241E+03   0.258E+02 -.145E+02 0.240E+03   -.316E+01 -.168E+01 0.139E+01   0.277E-02 0.258E-02 0.792E-02
   0.864E+00 0.724E+01 0.254E+03   -.689E+00 -.700E+01 -.254E+03   -.236E+00 -.271E+00 -.880E-01   0.138E-01 0.595E-04 0.324E-01
   -.613E+02 0.817E+01 -.105E+02   0.610E+02 -.777E+01 0.998E+01   0.332E+00 -.401E+00 0.512E+00   -.830E-02 0.186E-02 0.279E-01
   -.449E+02 0.472E+01 0.372E+03   0.443E+02 -.409E+01 -.370E+03   0.687E+00 -.102E+01 -.226E+01   -.171E-01 0.582E-03 0.204E-01
   -.387E+03 0.830E+01 0.744E+03   0.387E+03 -.753E+01 -.745E+03   0.255E+00 -.360E+00 0.942E+00   0.186E-01 -.171E-01 0.137E+00
   -.331E+03 0.173E+03 -.127E+04   0.330E+03 -.171E+03 0.127E+04   0.154E+01 -.134E+01 0.292E+01   0.308E-02 -.140E-01 0.684E-02
   0.954E+02 -.881E+01 0.184E+04   -.950E+02 0.769E+01 -.184E+04   -.541E+00 0.595E+00 -.433E+01   0.537E-01 0.328E-02 0.740E-01
   0.129E+03 0.138E+02 -.920E+01   -.130E+03 -.137E+02 0.103E+02   0.617E+00 -.117E+00 -.119E+01   0.212E-01 -.855E-02 0.129E+00
   -.585E+02 0.142E+03 0.191E+04   0.593E+02 -.141E+03 -.190E+04   -.532E+00 -.395E+00 -.268E+01   0.641E-01 -.952E-02 0.807E-01
   0.489E+02 0.839E+02 -.236E+02   -.485E+02 -.845E+02 0.240E+02   -.431E+00 0.671E+00 -.615E+00   0.193E-01 -.382E-02 0.126E+00
   -.402E+03 -.256E+02 0.100E+04   0.403E+03 0.242E+02 -.100E+04   -.816E+00 0.171E+01 -.176E+01   0.109E-01 0.147E-01 0.145E+00
   -.217E+03 -.192E+02 -.110E+04   0.218E+03 0.198E+02 0.110E+04   -.106E+01 -.600E+00 0.458E+00   0.370E-02 0.538E-02 0.113E-02
   0.293E+03 -.119E+03 0.175E+04   -.293E+03 0.119E+03 -.174E+04   0.246E+00 -.344E+00 -.425E+01   0.507E-01 -.425E-01 0.862E-01
   0.370E+03 -.130E+03 -.217E+02   -.370E+03 0.130E+03 0.220E+02   0.246E+00 -.147E-01 -.410E+00   0.279E-01 -.357E-02 0.142E+00
   -.203E+02 0.107E+01 0.301E+03   0.197E+02 -.106E+01 -.302E+03   0.570E+00 0.130E-01 -.272E+00   0.132E-01 0.495E-03 0.584E-01
   -.255E+02 -.188E+02 -.495E+03   0.251E+02 0.185E+02 0.494E+03   0.389E+00 0.345E+00 0.118E+01   0.103E-02 -.300E-02 0.308E-02
   0.177E+03 -.901E+01 0.287E+03   -.176E+03 0.891E+01 -.288E+03   -.144E+01 0.618E+00 0.510E+00   0.155E-02 -.291E-02 0.710E-01
   0.189E+03 -.288E+02 -.451E+03   -.187E+03 0.302E+02 0.448E+03   -.134E+01 -.139E+01 0.258E+01   0.100E-02 -.253E-02 0.141E-01
   0.141E+03 -.491E+02 0.318E+02   -.140E+03 0.494E+02 -.321E+02   -.441E+00 -.269E+00 0.274E+00   0.841E-03 0.527E-02 0.463E-01
   0.117E+03 -.557E+02 0.533E+03   -.115E+03 0.557E+02 -.530E+03   -.887E+00 -.255E+00 -.264E+01   -.344E-02 -.271E-02 0.185E-01
   -.123E+03 0.675E+02 -.129E+02   0.123E+03 -.666E+02 0.126E+02   0.122E+00 -.943E+00 0.358E+00   0.301E-02 0.269E-02 0.373E-01
   -.100E+03 0.601E+02 0.584E+03   0.995E+02 -.596E+02 -.580E+03   0.407E+00 -.536E+00 -.285E+01   0.756E-02 0.405E-03 0.249E-01
   0.702E+02 -.210E+02 0.259E+03   -.711E+02 0.204E+02 -.259E+03   0.960E+00 0.934E+00 -.586E+00   0.144E-01 -.113E-02 0.510E-01
   0.307E+02 -.675E+02 -.391E+03   -.311E+02 0.657E+02 0.390E+03   0.345E+00 0.186E+01 0.137E+01   0.576E-02 -.149E-02 0.972E-02
   -.826E+02 -.368E+02 -.327E+03   0.823E+02 0.366E+02 0.325E+03   0.293E+00 0.191E+00 0.229E+01   0.162E-02 0.273E-02 0.312E-02
   -.159E+03 0.685E+01 0.276E+03   0.159E+03 -.680E+01 -.276E+03   0.300E+00 -.196E+00 -.878E-01   -.685E-02 0.806E-03 0.401E-01
   -.150E+03 -.493E+01 0.544E+03   0.149E+03 0.486E+01 -.541E+03   0.715E+00 -.530E-02 -.253E+01   -.100E-01 -.107E-01 0.270E-01
   -.196E+03 -.154E+02 -.374E+02   0.195E+03 0.153E+02 0.376E+02   0.104E+01 0.239E-01 -.247E+00   -.185E-02 0.385E-03 0.334E-01
   0.799E+02 0.840E+01 0.266E+03   -.802E+02 -.807E+01 -.266E+03   -.959E-04 -.814E-01 -.273E+00   0.167E-01 0.473E-03 0.477E-01
   0.335E+02 0.629E+02 -.442E+03   -.319E+02 -.612E+02 0.440E+03   -.159E+01 -.174E+01 0.239E+01   0.178E-02 0.440E-02 0.722E-02
   0.666E+02 0.536E+01 -.168E+01   -.670E+02 -.492E+01 0.366E+00   0.424E+00 -.444E+00 0.127E+01   0.935E-02 0.236E-02 0.422E-01
   0.335E+02 -.103E+01 0.564E+03   -.342E+02 0.100E+01 -.561E+03   0.607E+00 -.200E-02 -.240E+01   0.306E-01 0.337E-04 0.225E-01
   0.128E+03 0.121E+02 0.258E+03   -.127E+03 -.125E+02 -.259E+03   -.926E+00 0.575E+00 -.384E+00   0.120E-01 0.249E-02 0.512E-01
   0.920E+02 0.196E+02 -.395E+03   -.902E+02 -.184E+02 0.394E+03   -.185E+01 -.124E+01 0.144E+01   0.487E-02 -.558E-02 0.135E-01
   0.129E+03 0.102E+02 0.281E+03   -.129E+03 -.101E+02 -.280E+03   0.781E-01 -.361E+00 -.677E+00   -.317E-02 0.640E-03 0.550E-01
   0.807E+02 0.133E+02 -.343E+03   -.820E+02 -.144E+02 0.341E+03   0.127E+01 0.110E+01 0.216E+01   -.196E-02 -.835E-04 0.761E-02
   0.127E+03 0.394E+02 0.496E+03   -.127E+03 -.392E+02 -.493E+03   0.185E+00 -.422E+00 -.267E+01   -.148E-02 0.996E-03 0.240E-01
   0.150E+03 0.349E+02 0.280E+02   -.150E+03 -.340E+02 -.283E+02   -.215E+00 -.939E+00 0.279E+00   -.240E-02 -.408E-02 0.436E-01
   -.981E+02 -.175E+01 0.550E+03   0.983E+02 0.171E+01 -.547E+03   -.429E+00 0.382E-01 -.306E+01   -.115E-01 0.939E-02 0.246E-01
   -.144E+03 0.544E+01 -.191E+02   0.144E+03 -.548E+01 0.195E+02   0.302E+00 0.410E-01 -.370E+00   -.325E-02 -.150E-02 0.309E-01
   0.129E+03 0.294E+02 0.521E+03   -.129E+03 -.297E+02 -.519E+03   -.259E+00 0.374E+00 -.254E+01   0.137E-01 0.972E-02 0.249E-01
   0.144E+03 0.288E+02 0.129E+02   -.143E+03 -.289E+02 -.135E+02   -.738E+00 0.109E+00 0.578E+00   0.482E-02 -.141E-03 0.442E-01
   0.923E+02 -.978E+01 -.341E+03   -.924E+02 0.866E+01 0.339E+03   0.128E+00 0.110E+01 0.208E+01   0.278E-02 0.511E-02 0.133E-01
   0.119E+03 -.645E+01 0.296E+03   -.120E+03 0.613E+01 -.296E+03   0.637E+00 0.395E+00 -.195E+00   0.113E-01 -.153E-02 0.605E-01
   0.422E+02 0.250E+01 0.236E+03   -.420E+02 -.245E+01 -.236E+03   -.358E+00 -.382E-01 -.654E-01   -.109E-01 0.630E-03 0.510E-01
   0.264E+02 0.515E+01 -.329E+03   -.277E+02 -.427E+01 0.327E+03   0.131E+01 -.867E+00 0.210E+01   -.339E-02 -.510E-02 0.641E-02
   -.400E+02 -.170E+00 0.504E+03   0.402E+02 0.501E+00 -.501E+03   -.389E-01 -.246E+00 -.284E+01   -.142E-01 -.164E-02 0.219E-01
   -.602E+02 -.449E+01 -.143E+01   0.602E+02 0.450E+01 0.157E+01   0.400E-01 -.756E-02 -.179E+00   -.945E-02 -.110E-02 0.370E-01
   0.530E+02 -.327E+01 0.486E+03   -.529E+02 0.263E+01 -.483E+03   -.165E-01 0.221E+00 -.311E+01   -.181E-01 -.200E-02 0.251E-01
   0.539E+02 -.307E+01 -.314E+02   -.537E+02 0.240E+01 0.319E+02   -.221E+00 0.669E+00 -.520E+00   -.913E-02 -.295E-02 0.375E-01
   -.675E+02 -.306E+01 0.263E+03   0.676E+02 0.315E+01 -.263E+03   0.861E-01 0.204E+00 0.101E+00   -.168E-01 -.459E-02 0.478E-01
   -.113E+02 -.648E+02 -.315E+03   0.124E+02 0.634E+02 0.313E+03   -.108E+01 0.138E+01 0.197E+01   -.259E-02 0.897E-03 0.500E-02
   0.416E+02 0.134E+01 0.500E+03   -.409E+02 -.121E+01 -.496E+03   -.806E+00 -.306E+00 -.328E+01   -.191E-01 0.337E-02 0.209E-01
   0.455E+02 -.290E+01 0.235E+01   -.451E+02 0.314E+01 -.187E+01   -.440E+00 -.241E+00 -.524E+00   -.594E-02 0.375E-02 0.440E-01
   -.933E+02 0.306E+00 0.238E+03   0.929E+02 -.407E+00 -.239E+03   0.580E+00 0.153E+00 -.422E-01   -.149E-01 0.461E-02 0.491E-01
   -.124E+03 0.149E+02 -.380E+03   0.123E+03 -.157E+02 0.378E+03   0.158E+01 0.768E+00 0.173E+01   -.284E-02 0.180E-02 -.161E-02
   0.216E+02 0.331E+02 -.322E+03   -.210E+02 -.319E+02 0.321E+03   -.584E+00 -.114E+01 0.127E+01   -.291E-02 0.415E-02 0.692E-02
   0.544E+02 -.535E+01 0.270E+03   -.537E+02 0.528E+01 -.271E+03   -.705E+00 0.259E+00 -.978E-02   -.169E-01 -.130E-03 0.567E-01
   -.142E+03 -.430E+02 0.581E+03   0.141E+03 0.424E+02 -.578E+03   0.837E+00 0.297E-01 -.327E+01   0.180E-02 -.361E-03 0.231E-01
   -.145E+03 -.373E+02 -.132E+02   0.145E+03 0.368E+02 0.140E+02   0.149E+00 0.488E+00 -.811E+00   0.611E-02 -.138E-02 0.303E-01
   -.159E+03 0.594E+01 0.266E+03   0.158E+03 -.613E+01 -.267E+03   0.916E+00 0.386E+00 0.126E+00   -.842E-02 -.789E-03 0.474E-01
   -.141E+03 0.124E+02 -.347E+03   0.141E+03 -.126E+02 0.345E+03   0.489E+00 0.182E+00 0.185E+01   0.272E-02 -.159E-02 -.803E-03
   0.153E+03 0.699E+02 -.585E+03   -.153E+03 -.688E+02 0.590E+03   -.114E+00 -.101E+01 -.478E+01   0.683E-02 0.471E-02 0.180E-01
   -.979E+02 0.389E+02 -.798E+03   0.985E+02 -.431E+02 0.812E+03   -.565E+00 0.420E+01 -.147E+02   -.217E-02 -.997E-03 -.193E-01
   0.192E+03 0.192E+02 -.581E+03   -.193E+03 -.217E+02 0.586E+03   0.103E+01 0.249E+01 -.496E+01   -.619E-02 -.148E-01 0.112E-01
   -.856E+02 -.173E+02 -.689E+03   0.852E+02 0.191E+02 0.698E+03   0.417E+00 -.184E+01 -.922E+01   -.178E-01 0.391E-02 -.129E-01
   0.998E+02 -.328E+02 -.819E+03   -.100E+03 0.354E+02 0.837E+03   0.281E+00 -.262E+01 -.187E+02   0.297E-02 0.658E-02 -.107E-01
   0.908E+02 -.375E+02 -.918E+03   -.858E+02 0.365E+02 0.937E+03   -.497E+01 0.100E+01 -.187E+02   0.428E-02 -.736E-02 -.127E-01
   -.151E+03 -.436E+02 -.993E+03   0.153E+03 0.426E+02 0.101E+04   -.233E+01 0.947E+00 -.202E+02   -.821E-02 0.220E-02 -.246E-01
   0.627E+02 0.498E+02 -.974E+03   -.665E+02 -.514E+02 0.995E+03   0.382E+01 0.156E+01 -.203E+02   -.312E-01 -.220E-01 -.755E-03
   0.268E+02 -.260E+02 -.821E+03   -.284E+02 0.266E+02 0.839E+03   0.156E+01 -.601E+00 -.180E+02   0.233E-02 0.103E-01 -.208E-01
   0.880E+02 -.123E+02 -.944E+03   -.924E+02 0.152E+02 0.962E+03   0.437E+01 -.287E+01 -.178E+02   -.119E-01 0.507E-02 -.565E-02
   0.541E+02 0.289E+01 -.737E+03   -.557E+02 -.582E+01 0.747E+03   0.158E+01 0.292E+01 -.986E+01   0.157E-02 0.650E-02 -.687E-04
   -.153E+03 -.880E+02 -.978E+03   0.152E+03 0.919E+02 0.997E+03   0.983E+00 -.394E+01 -.196E+02   0.372E-02 0.144E-01 -.228E-01
 -----------------------------------------------------------------------------------------------
   -.429E+01 0.263E+01 0.194E+03   -.256E-12 -.142E-13 0.512E-11   0.409E+01 -.258E+01 -.197E+03   0.194E+00 -.508E-01 0.242E+01
 
 
 POSITION                                       TOTAL-FORCE (eV/Angst)
 -----------------------------------------------------------------------------------
      8.57631      8.29685     10.39845        -0.070980     -0.173481      0.017992
      8.52951      3.84272     15.09661         0.001044     -0.000344      0.000806
      8.70282      5.98024     16.96509        -0.002336     -0.000710      0.003210
      8.51616      0.79995     12.43874        -0.046926     -0.031906      0.064272
     13.41941      6.12661     15.26926         0.002042     -0.000607     -0.000119
     13.49094      1.15316     10.44749        -0.017586     -0.390052     -0.031201
     10.03344      3.28428     12.67411        -0.050814      0.401228     -0.416188
     10.01621      8.37154     17.28633         0.008137     -0.001629     -0.002179
      7.12524      5.81577     10.15765        -0.138698     -0.513585      0.924880
      7.01959      1.33218     15.08763         0.001623      0.000261     -0.001200
      8.51222      3.28036     10.20450         0.268956      0.059728      0.837216
      8.45771      8.29536     14.99261         0.002188     -0.000989     -0.001308
     10.22263      8.06723     12.77991         0.264752      0.332618     -0.326042
     10.05959      3.72084     17.56388        -0.000152     -0.002002     -0.007244
      5.42664      8.10481     10.20639         0.312105      0.091855      0.858229
      5.33639      3.55704     15.10040        -0.002148      0.000889      0.001158
      8.52843      5.75423     12.65640         0.008215      0.021468     -0.422483
      8.53212      1.05099     17.57524         0.003607      0.002059     -0.001887
      3.84829      7.97317     12.47259        -0.529752      0.510460     -0.503782
      3.79865      3.34257     17.47155         0.000092     -0.001190      0.001284
      3.80973      5.68638     14.68748         0.001871      0.001247     -0.000400
      3.90063      0.73891     10.00000         0.428455     -0.207161      0.382002
     10.25413      6.09791     14.83678        -0.000893      0.000379      0.000774
     10.19112      1.10470     10.13736        -0.228436      0.014706      0.301108
      6.82945      7.99424     12.66670         0.098428      0.291140     -0.411711
      6.85972      3.71388     17.43594         0.003942      0.001114      0.000288
     11.50281      6.22111     17.44224        -0.003334      0.000883     -0.000901
     11.66772      1.05372     12.57547        -0.353616     -0.143522     -0.423152
     11.73919      3.33868     10.41199        -0.268895     -0.081465      0.609306
     11.72006      8.38196     15.25974         0.002248     -0.001352      0.000556
      7.18522      3.24644     12.75390        -0.247564      0.242936     -0.385677
      7.13464      8.06251     17.48707         0.002065     -0.002337     -0.000474
      6.81115      6.01820     14.82309        -0.000139     -0.000755      0.001010
      6.87795      0.97560     10.08695        -0.064579     -0.032818      0.261278
      5.51084      5.55012     12.48419        -0.115388      0.240969     -0.651129
      5.50961      0.92359     17.51307        -0.000482      0.000022     -0.002105
      3.51249      3.50019     12.83519        -0.023374     -0.238606     -0.232641
      3.06292      8.69463     17.54951         0.003870      0.000180      0.002502
      3.46798      5.87237     10.40868         0.086787     -0.216939     -0.054110
      3.45676      1.33326     15.14982         0.001164      0.001092      0.001272
     11.91771      8.21633     10.24534        -0.224033      0.010366      0.728272
     11.93263      3.59189     15.15472         0.000585      0.002062      0.000258
      5.24135      3.36543     10.32679         0.137727      0.067791      0.119650
      5.17737      8.41582     15.09234         0.000051      0.001363     -0.000397
      4.87953      6.19356     17.29154         0.004171     -0.002253      0.004063
      5.28930      0.99064     12.60849         0.251789      0.076355     -0.338639
      1.60538      5.84491     12.85122        -0.204641      0.015608     -0.630179
      1.31410      1.64812     17.52583         0.002719      0.000519      0.000336
     13.72038      5.67134     10.18293         0.182948      0.083606      0.613841
     13.68536      1.04996     14.97012        -0.000039      0.000393      0.000132
      1.63456      8.33987     10.36453         0.048110     -0.415192      0.142740
      1.55982      3.79196     15.30888         0.002109     -0.001222      0.000475
     13.76831      3.16119     12.53308         0.163473      0.286540     -0.204023
      0.00536      8.29024     17.49455         0.000665      0.001046      0.001393
      1.99440      3.17314     10.17666        -0.121443     -0.176779      0.604582
      1.89161      7.99103     15.08224        -0.000080      0.001873     -0.002040
     13.48051      8.37930     12.86886         0.202930      0.056405     -0.434168
     13.16987      4.08525     17.98004         0.000392     -0.000257     -0.000280
      1.79786      5.94309     17.64971         0.000603     -0.000966      0.001058
      2.02729      0.87737     12.46815         0.001307      0.192017     -0.462691
     10.07171      5.79402     10.14663         0.157562     -0.571459      0.161216
     10.01819      1.27169     14.99551         0.002754      0.000583     -0.002616
     11.97051      5.66181     12.67660         0.025794      0.195856     -0.717897
     11.79143      1.28638     17.65192         0.001003     -0.000536      0.002158
      5.08563      8.38297     17.41372         0.000536     -0.000254      0.001010
     13.44675      2.17079     18.70665         0.001891     -0.001597      0.003622
      3.46564      1.19132     17.50940         0.002989      0.000060      0.001590
     13.43219      6.26382     18.17951         0.002683     -0.000197      0.002427
      3.56207      5.05305     18.46435         0.000784     -0.000433      0.000859
      5.47183      2.71375     18.43795         0.000852      0.002037      0.004079
     10.20394      0.37529     18.62547         0.003928     -0.001380      0.002088
      7.01374      0.20191     18.55071         0.007426      0.004032      0.000934
      1.77853      7.87910     18.67999         0.000440     -0.001271      0.000305
      8.42675      2.90755     18.42347         0.003068     -0.000146      0.000152
      6.96509      5.94294     17.73465         0.000755      0.002509      0.000432
     11.27661      4.69569     18.74156         0.002694     -0.000862      0.002045
 -----------------------------------------------------------------------------------
    total drift:                               -0.002377     -0.004646     -0.031959


--------------------------------------------------------------------------------------------------------



  FREE ENERGIE OF THE ION-ELECTRON SYSTEM (eV)
  ---------------------------------------------------
  free  energy   TOTEN  =      -627.44374377 eV

  energy  without entropy=     -627.44022961  energy(sigma->0) =     -627.44286523
 
 d Force = 0.2033940E-04[ 0.119E-04, 0.288E-04]  d Energy = 0.4283811E-05 0.161E-04
 d Force = 0.5443394E+00[ 0.544E+00, 0.544E+00]  d Ewald  = 0.5443392E+00 0.227E-06


--------------------------------------------------------------------------------------------------------


    POTLOK:  cpu time    0.0596: real time    0.0596


--------------------------------------------------------------------------------------------------------


 Conjugate gradient step on ions:
 trial-energy change:   -0.000004  1 .order   -0.000020   -0.000029   -0.000012
  (g-gl).g = 0.773E-05      g.g   = 0.121E-04  gl.gl    = 0.248E-04
 g(Force)  = 0.121E-04   g(Stress)= 0.000E+00 ortho     =-0.111E-05
 gamma     =   0.31145
 trial     =   2.43947
 opt step  =   4.16469  (harmonic =   4.16469) maximal distance =0.00072678
 next E    =  -627.443764   (d E  =  -0.00002)


--------------------------------------------------------------------------------------------------------


  
 reached required accuracy - stopping structural energy minimisation
     LOOP+:  cpu time   49.0595: real time   49.1224
    4ORBIT:  cpu time    0.0000: real time    0.0000

 total amount of memory used by VASP on root node    80987. kBytes
========================================================================

   base      :      30000. kBytes
   nonl-proj :      14039. kBytes
   fftplans  :       3278. kBytes
   grid      :       7939. kBytes
   one-center:         31. kBytes
   wavefun   :      25700. kBytes
 
  
  
 General timing and accounting informations for this job:
 ========================================================
  
                  Total CPU time used (sec):      705.164
                            User time (sec):      692.020
                          System time (sec):       13.144
                         Elapsed time (sec):      706.068
  
                   Maximum memory used (kb):      160716.
                   Average memory used (kb):           0.
  
                          Minor page faults:        42539
                          Major page faults:            0
                 Voluntary context switches:         6329
