 vasp.5.4.1 05Feb16 (build Mar 19 2020 08:54:17) complex                        
  
 executed on           IFC91_ompi date 2021.11.07  08:34:47
 running on   48 total cores
 distrk:  each k-point on   48 cores,    1 groups
 distr:  one band on NCORES_PER_BAND=  24 cores,    2 groups


--------------------------------------------------------------------------------------------------------


 INCAR:
 POTCAR:    PAW_PBE Al 04Jan2001                  
 POTCAR:    PAW_PBE Nb_sv 25May2007               
 POTCAR:    PAW_PBE Ta 17Jan2003                  
 POTCAR:    PAW_PBE Ti 08Apr2002                  
 POTCAR:   PAW_PBE Zr 08Apr2002                   
 POTCAR:    PAW_PBE O 08Apr2002                   

 ----------------------------------------------------------------------------- 
|                                                                             |
|           W    W    AA    RRRRR   N    N  II  N    N   GGGG   !!!           |
|           W    W   A  A   R    R  NN   N  II  NN   N  G    G  !!!           |
|           W    W  A    A  R    R  N N  N  II  N N  N  G       !!!           |
|           W WW W  AAAAAA  RRRRR   N  N N  II  N  N N  G  GGG   !            |
|           WW  WW  A    A  R   R   N   NN  II  N   NN  G    G                |
|           W    W  A    A  R    R  N    N  II  N    N   GGGG   !!!           |
|                                                                             |
|      For optimal performance we recommend to set                            |
|        NCORE= 4 - approx SQRT( number of cores)                             |
|      NCORE specifies how many cores store one orbital (NPAR=cpu/NCORE).     |
|      This setting can  greatly improve the performance of VASP for DFT.     |
|      The default, NPAR=number of cores might be grossly inefficient         |
|      on modern multi-core architectures or massively parallel machines.     |
|      Do your own testing !!!!                                               |
|      Unfortunately you need to use the default for GW and RPA calculations. |
|      (for HF NCORE is supported but not extensively tested yet)             |
|                                                                             |
 ----------------------------------------------------------------------------- 

 POTCAR:    PAW_PBE Al 04Jan2001                  
   VRHFIN =Al: s2p1                                                             
   LEXCH  = PE                                                                  
   EATOM  =    53.5387 eV,    3.9350 Ry                                         
                                                                                
   TITEL  = PAW_PBE Al 04Jan2001                                                
   LULTRA =        F    use ultrasoft PP ?                                      
   IUNSCR =        1    unscreen: 0-lin 1-nonlin 2-no                           
   RPACOR =    1.500    partial core radius                                     
   POMASS =   26.981; ZVAL   =    3.000    mass and valenz                      
   RCORE  =    1.900    outmost cutoff radius                                   
   RWIGS  =    2.650; RWIGS  =    1.402    wigner-seitz radius (au A)           
   ENMAX  =  240.300; ENMIN  =  180.225 eV                                      
   ICORE  =        2    local potential                                         
   LCOR   =        T    correct aug charges                                     
   LPAW   =        T    paw PP                                                  
   EAUG   =  291.052                                                            
   DEXC   =    0.000                                                            
   RMAX   =    1.939    core radius for proj-oper                               
   RAUG   =    1.300    factor for augmentation sphere                          
   RDEP   =    1.966    radius for radial grids                                 
   RDEPT  =    1.856    core radius for aug-charge                              
                                                                                
   Atomic configuration                                                         
    6 entries                                                                   
     n  l   j            E        occ.                                          
     1  0  0.50     -1511.1048   2.0000                                         
     2  0  0.50      -108.1629   2.0000                                         
     2  1  1.50       -69.6402   6.0000                                         
     3  0  0.50        -7.7528   2.0000                                         
     3  1  1.50        -2.7121   1.0000                                         
     3  2  2.50        -2.7212   0.0000                                         
   Description                                                                  
     l       E           TYP  RCUT    TYP  RCUT                                 
     0     -7.7528455     23  1.900                                             
     0     -3.3096929     23  1.900                                             
     1     -2.7120682     23  1.900                                             
     1     13.6058260     23  1.900                                             
     2     -2.7211652      7  1.900                                             
  local pseudopotential read in
  partial core-charges read in
  partial kinetic energy density read in
  atomic valenz-charges read in
  non local Contribution for L=           0  read in
    real space projection operators read in
  non local Contribution for L=           0  read in
    real space projection operators read in
  non local Contribution for L=           1  read in
    real space projection operators read in
  non local Contribution for L=           1  read in
    real space projection operators read in
    PAW grid and wavefunctions read in
 
   number of l-projection  operators is LMAX  =           4
   number of lm-projection operators is LMMAX =           8
 
 POTCAR:    PAW_PBE Nb_sv 25May2007               
   VRHFIN =Nb: 4p5s4d                                                           
   LEXCH  = PE                                                                  
   EATOM  =  1555.1913 eV,  114.3033 Ry                                         
                                                                                
   TITEL  = PAW_PBE Nb_sv 25May2007                                             
   LULTRA =        F    use ultrasoft PP ?                                      
   IUNSCR =        1    unscreen: 0-lin 1-nonlin 2-no                           
   RPACOR =    1.800    partial core radius                                     
   POMASS =   92.910; ZVAL   =   13.000    mass and valenz                      
   RCORE  =    2.400    outmost cutoff radius                                   
   RWIGS  =    2.400; RWIGS  =    1.270    wigner-seitz radius (au A)           
   ENMAX  =  293.235; ENMIN  =  219.927 eV                                      
   ICORE  =        3    local potential                                         
   LCOR   =        T    correct aug charges                                     
   LPAW   =        T    paw PP                                                  
   EAUG   =  455.659                                                            
   DEXC   =    0.000                                                            
   RMAX   =    2.456    core radius for proj-oper                               
   RAUG   =    1.300    factor for augmentation sphere                          
   RDEP   =    2.451    radius for radial grids                                 
   RDEPT  =    1.956    core radius for aug-charge                              
                                                                                
   Atomic configuration                                                         
   11 entries                                                                   
     n  l   j            E        occ.                                          
     1  0  0.50    -18805.2457   2.0000                                         
     2  0  0.50     -2630.2869   2.0000                                         
     2  1  1.50     -2348.4046   6.0000                                         
     3  0  0.50      -438.8757   2.0000                                         
     3  1  1.50      -346.7588   6.0000                                         
     3  2  2.50      -196.2560  10.0000                                         
     4  0  0.50       -58.3859   2.0000                                         
     5  0  0.50        -3.9816   1.0000                                         
     4  1  1.50       -34.5141   6.0000                                         
     4  2  2.50        -3.0408   4.0000                                         
     4  3  2.50        -1.3606   0.0000                                         
   Description                                                                  
     l       E           TYP  RCUT    TYP  RCUT                                 
     0    -58.3859094     23  2.200                                             
     0     -3.9816262     23  2.200                                             
     1    -34.5140738     23  2.200                                             
     1     13.6058260     23  2.200                                             
     2     -3.0408010     23  2.200                                             
     2     -0.1283038     23  2.200                                             
     3     -1.3605826     23  2.400                                             
  local pseudopotential read in
  partial core-charges read in
  partial kinetic energy density read in
  atomic valenz-charges read in
  non local Contribution for L=           0  read in
    real space projection operators read in
  non local Contribution for L=           0  read in
    real space projection operators read in
  non local Contribution for L=           1  read in
    real space projection operators read in
  non local Contribution for L=           1  read in
    real space projection operators read in
  non local Contribution for L=           2  read in
    real space projection operators read in
  non local Contribution for L=           2  read in
    real space projection operators read in
    PAW grid and wavefunctions read in
 
   number of l-projection  operators is LMAX  =           6
   number of lm-projection operators is LMMAX =          18
 
 POTCAR:    PAW_PBE Ta 17Jan2003                  
   VRHFIN =Ta:  6s5d                                                            
   LEXCH  = PE                                                                  
   EATOM  =   130.6506 eV,    9.6025 Ry                                         
                                                                                
   TITEL  = PAW_PBE Ta 17Jan2003                                                
   LULTRA =        F    use ultrasoft PP ?                                      
   IUNSCR =        1    unscreen: 0-lin 1-nonlin 2-no                           
   RPACOR =    2.330    partial core radius                                     
   POMASS =  180.948; ZVAL   =    5.000    mass and valenz                      
   RCORE  =    2.900    outmost cutoff radius                                   
   RWIGS  =    2.840; RWIGS  =    1.503    wigner-seitz radius (au A)           
   ENMAX  =  223.667; ENMIN  =  167.750 eV                                      
   RCLOC  =    2.205    cutoff for local pot                                    
   LCOR   =        T    correct aug charges                                     
   LPAW   =        T    paw PP                                                  
   EAUG   =  332.075                                                            
   DEXC   =    0.000                                                            
   RMAX   =    2.970    core radius for proj-oper                               
   RAUG   =    1.300    factor for augmentation sphere                          
   RDEP   =    3.060    radius for radial grids                                 
   RDEPT  =    2.354    core radius for aug-charge                              
                                                                                
   Atomic configuration                                                         
   16 entries                                                                   
     n  l   j            E        occ.                                          
     1  0  0.50    -67341.2807   2.0000                                         
     2  0  0.50    -11566.9376   2.0000                                         
     2  1  1.50    -10134.1182   6.0000                                         
     3  0  0.50     -2648.5620   2.0000                                         
     3  1  1.50     -2222.6012   6.0000                                         
     3  2  2.50     -1726.3120  10.0000                                         
     4  0  0.50      -538.6961   2.0000                                         
     4  1  1.50      -399.0129   6.0000                                         
     4  2  2.50      -220.3959  10.0000                                         
     4  3  3.50       -23.0374  14.0000                                         
     5  0  0.50       -71.2901   2.0000                                         
     5  1  1.50       -37.8225   6.0000                                         
     5  2  2.50        -2.6455   4.0000                                         
     6  0  0.50        -4.9623   1.0000                                         
     6  1  1.50        -1.3606   0.0000                                         
     5  3  2.50        -1.3606   0.0000                                         
   Description                                                                  
     l       E           TYP  RCUT    TYP  RCUT                                 
     2     -2.6455043     23  2.500                                             
     2     -0.6258895     23  2.500                                             
     0     -4.9622780     23  2.500                                             
     0      4.7531321     23  2.500                                             
     1     -1.3605826     23  2.900                                             
     1     27.2116520     23  2.900                                             
  local pseudopotential read in
  partial core-charges read in
  partial kinetic energy density read in
  atomic valenz-charges read in
  non local Contribution for L=           2  read in
    real space projection operators read in
  non local Contribution for L=           2  read in
    real space projection operators read in
  non local Contribution for L=           0  read in
    real space projection operators read in
  non local Contribution for L=           0  read in
    real space projection operators read in
  non local Contribution for L=           1  read in
    real space projection operators read in
  non local Contribution for L=           1  read in
    real space projection operators read in
    PAW grid and wavefunctions read in
 
   number of l-projection  operators is LMAX  =           6
   number of lm-projection operators is LMMAX =          18
 
 POTCAR:    PAW_PBE Ti 08Apr2002                  
   VRHFIN =Ti: d3 s1                                                            
   LEXCH  = PE                                                                  
   EATOM  =    94.7928 eV,    6.9671 Ry                                         
                                                                                
   TITEL  = PAW_PBE Ti 08Apr2002                                                
   LULTRA =        F    use ultrasoft PP ?                                      
   IUNSCR =        1    unscreen: 0-lin 1-nonlin 2-no                           
   RPACOR =    2.200    partial core radius                                     
   POMASS =   47.880; ZVAL   =    4.000    mass and valenz                      
   RCORE  =    2.800    outmost cutoff radius                                   
   RWIGS  =    2.500; RWIGS  =    1.323    wigner-seitz radius (au A)           
   ENMAX  =  178.330; ENMIN  =  133.747 eV                                      
   RCLOC  =    2.215    cutoff for local pot                                    
   LCOR   =        T    correct aug charges                                     
   LPAW   =        T    paw PP                                                  
   EAUG   =  328.883                                                            
   DEXC   =    0.000                                                            
   RMAX   =    2.868    core radius for proj-oper                               
   RAUG   =    1.300    factor for augmentation sphere                          
   RDEP   =    2.885    radius for radial grids                                 
   RDEPT  =    2.320    core radius for aug-charge                              
                                                                                
   Atomic configuration                                                         
    9 entries                                                                   
     n  l   j            E        occ.                                          
     1  0  0.50     -4865.3608   2.0000                                         
     2  0  0.50      -533.1367   2.0000                                         
     2  1  1.50      -440.5031   6.0000                                         
     3  0  0.50       -59.3186   2.0000                                         
     3  1  1.50       -35.7012   6.0000                                         
     3  2  2.50        -1.9157   3.0000                                         
     4  0  0.50        -3.7291   1.0000                                         
     4  1  1.50        -4.0817   0.0000                                         
     4  3  2.50        -1.3606   0.0000                                         
   Description                                                                  
     l       E           TYP  RCUT    TYP  RCUT                                 
     2     -1.9156924     23  2.800                                             
     2     -0.4062961     23  2.800                                             
     0     -3.7290832     23  2.800                                             
     0     20.4087390     23  2.800                                             
     1     -5.4423304     23  2.800                                             
  local pseudopotential read in
  partial core-charges read in
  partial kinetic energy density read in
  atomic valenz-charges read in
  non local Contribution for L=           2  read in
    real space projection operators read in
  non local Contribution for L=           2  read in
    real space projection operators read in
  non local Contribution for L=           0  read in
    real space projection operators read in
  non local Contribution for L=           0  read in
    real space projection operators read in
  non local Contribution for L=           1  read in
    real space projection operators read in
    PAW grid and wavefunctions read in
 
   number of l-projection  operators is LMAX  =           5
   number of lm-projection operators is LMMAX =          15
 
 POTCAR:   PAW_PBE Zr 08Apr2002                   
   VRHFIN =Zr: 5s4d5p                                                           
   LEXCH  = PE                                                                  
   EATOM  =    77.8472 eV,    5.7216 Ry                                         
                                                                                
   TITEL  = PAW_PBE Zr 08Apr2002                                                
   LULTRA =        F    use ultrasoft PP ?                                      
   IUNSCR =        1    unscreen: 0-lin 1-nonlin 2-no                           
   RPACOR =    2.200    partial core radius                                     
   POMASS =   91.224; ZVAL   =    4.000    mass and valenz                      
   RCORE  =    3.000    outmost cutoff radius                                   
   RWIGS  =    3.070; RWIGS  =    1.625    wigner-seitz radius (au A)           
   ENMAX  =  154.632; ENMIN  =  115.974 eV                                      
   RCLOC  =    2.213    cutoff for local pot                                    
   LCOR   =        T    correct aug charges                                     
   LPAW   =        T    paw PP                                                  
   EAUG   =  243.217                                                            
   DEXC   =    -.082                                                            
   RMAX   =    3.708    core radius for proj-oper                               
   RAUG   =    1.300    factor for augmentation sphere                          
   RDEP   =    3.146    radius for radial grids                                 
   QCUT   =   -3.371; QGAM   =    6.742    optimization parameters              
                                                                                
   Description                                                                  
     l     E      TYP  RCUT    TYP  RCUT                                        
     2   .000     23  3.000                                                     
     2   .000     23  3.000                                                     
     0   .000     23  3.000                                                     
     0  2.000     23  3.000                                                     
     1  -.400     23  3.000                                                     
     3   .000      7   .000                                                     
  local pseudopotential read in
  partial core-charges read in
  atomic valenz-charges read in
  non local Contribution for L=           2  read in
    real space projection operators read in
  non local Contribution for L=           2  read in
    real space projection operators read in
  non local Contribution for L=           0  read in
    real space projection operators read in
  non local Contribution for L=           0  read in
    real space projection operators read in
  non local Contribution for L=           1  read in
    real space projection operators read in
    PAW grid and wavefunctions read in
 
   number of l-projection  operators is LMAX  =           5
   number of lm-projection operators is LMMAX =          15
 
 POTCAR:    PAW_PBE O 08Apr2002                   
   VRHFIN =O: s2p4                                                              
   LEXCH  = PE                                                                  
   EATOM  =   432.3788 eV,   31.7789 Ry                                         
                                                                                
   TITEL  = PAW_PBE O 08Apr2002                                                 
   LULTRA =        F    use ultrasoft PP ?                                      
   IUNSCR =        1    unscreen: 0-lin 1-nonlin 2-no                           
   RPACOR =    1.200    partial core radius                                     
   POMASS =   16.000; ZVAL   =    6.000    mass and valenz                      
   RCORE  =    1.520    outmost cutoff radius                                   
   RWIGS  =    1.550; RWIGS  =    0.820    wigner-seitz radius (au A)           
   ENMAX  =  400.000; ENMIN  =  300.000 eV                                      
   ICORE  =        2    local potential                                         
   LCOR   =        T    correct aug charges                                     
   LPAW   =        T    paw PP                                                  
   EAUG   =  605.392                                                            
   DEXC   =    0.000                                                            
   RMAX   =    1.553    core radius for proj-oper                               
   RAUG   =    1.300    factor for augmentation sphere                          
   RDEP   =    1.550    radius for radial grids                                 
   RDEPT  =    1.329    core radius for aug-charge                              
                                                                                
   Atomic configuration                                                         
    4 entries                                                                   
     n  l   j            E        occ.                                          
     1  0  0.50      -514.6923   2.0000                                         
     2  0  0.50       -23.9615   2.0000                                         
     2  1  0.50        -9.0305   4.0000                                         
     3  2  1.50        -9.5241   0.0000                                         
   Description                                                                  
     l       E           TYP  RCUT    TYP  RCUT                                 
     0    -23.9615318     23  1.200                                             
     0     -9.5240782     23  1.200                                             
     1     -9.0304911     23  1.520                                             
     1      8.1634956     23  1.520                                             
     2     -9.5240782      7  1.500                                             
  local pseudopotential read in
  partial core-charges read in
  partial kinetic energy density read in
  kinetic energy density of atom read in
  atomic valenz-charges read in
  non local Contribution for L=           0  read in
    real space projection operators read in
  non local Contribution for L=           0  read in
    real space projection operators read in
  non local Contribution for L=           1  read in
    real space projection operators read in
  non local Contribution for L=           1  read in
    real space projection operators read in
    PAW grid and wavefunctions read in
 
   number of l-projection  operators is LMAX  =           4
   number of lm-projection operators is LMMAX =           8
 

 ----------------------------------------------------------------------------- 
|                                                                             |
|  ADVICE TO THIS USER RUNNING 'VASP/VAMP'   (HEAR YOUR MASTER'S VOICE ...):  |
|                                                                             |
|      You have a (more or less) 'large supercell' and for larger cells       |
|      it might be more efficient to use real space projection opertators     |
|      So try LREAL= Auto  in the INCAR   file.                               |
|      Mind: At the moment your POTCAR file does not contain real space       |
|       projectors, and has to be modified,  BUT if you                       |
|      want to do an extremely  accurate calculation you might also keep the  |
|      reciprocal projection scheme          (i.e. LREAL=.FALSE.)             |
|                                                                             |
 ----------------------------------------------------------------------------- 

 WARNING: PSMAXN for non-local potential too small
          PSMAXN should be >   12.5490833729506       NTYP=           5
  PAW_PBE Al 04Jan2001                  :
 energy of atom  1       EATOM=  -53.5387
 kinetic energy error for atom=    0.0002 (will be added to EATOM!!)
  PAW_PBE Nb_sv 25May2007               :
 energy of atom  2       EATOM=-1555.1913
 kinetic energy error for atom=    0.0037 (will be added to EATOM!!)
  PAW_PBE Ta 17Jan2003                  :
 energy of atom  3       EATOM= -130.6506
 kinetic energy error for atom=    0.0004 (will be added to EATOM!!)
  PAW_PBE Ti 08Apr2002                  :
 energy of atom  4       EATOM=  -94.7928
 kinetic energy error for atom=    0.0001 (will be added to EATOM!!)
 PAW_PBE Zr 08Apr2002                   :
 energy of atom  5       EATOM=  -77.8472
 kinetic energy error for atom=    0.0001 (will be added to EATOM!!)
  PAW_PBE O 08Apr2002                   :
 energy of atom  6       EATOM= -432.3788
 kinetic energy error for atom=    0.0168 (will be added to EATOM!!)
 
 
 POSCAR: Al Nb Ta Ti Zr                          
  positions in direct lattice
  velocities in cartesian coordinates
 exchange correlation table for  LEXCH =        8
   RHO(1)=    0.500       N(1)  =     2000
   RHO(2)=  100.500       N(2)  =     4000
 


--------------------------------------------------------------------------------------------------------


 ion  position               nearest neighbor table
   1  0.623  0.867  0.376-  34 2.83  25 2.88  24 2.88   9 2.88  13 2.90   4 2.91  61 2.93  15 3.16
                            41 3.35  17 3.40
   2  0.621  0.397  0.547-  31 2.80  33 2.83  23 2.83  10 2.92   7 2.92  14 2.96  26 2.98  62 3.03
                             3 3.09  17 3.16  16 3.20  42 3.41
   3  0.593  0.629  0.624-  79 1.84  75 1.84  78 1.90  32 2.64  33 2.74   8 2.83  26 2.84  45 2.92
                            23 2.94  14 3.09   2 3.09
   4  0.618  0.084  0.450-  31 2.80  24 2.86  34 2.87  13 2.88   1 2.91  25 2.92   7 2.92  62 2.99
                            10 3.07  28 3.16  46 3.24
   5  0.972  0.635  0.546-  82 2.05  30 2.72  27 2.73  63 2.85  42 2.88  47 3.02  56 3.04  52 3.12
                            23 3.17  57 3.21  59 3.33  54 3.59
   6  0.980  0.121  0.378-  29 2.80  28 2.80  53 2.91  41 2.96  51 3.05  55 3.05  60 3.08  57 3.37

   7  0.729  0.343  0.458-  28 2.77  29 2.83  31 2.85  17 2.89  11 2.90   4 2.92   2 2.92  62 3.06
                            63 3.07  42 3.18
   8  0.729  0.849  0.632-  78 2.02  71 2.04  77 2.06  79 2.16  27 2.76  32 2.80   3 2.83  30 2.83
                            18 2.92  12 2.94  64 3.18
   9  0.517  0.608  0.367-  35 2.84  15 2.85  17 2.87   1 2.88  11 2.89  61 2.95  43 3.10
  10  0.512  0.135  0.546-  16 2.84  18 2.89  36 2.90   2 2.92  12 2.95  31 3.05  46 3.06   4 3.07
                            62 3.08  44 3.17
  11  0.618  0.343  0.369-  24 2.75  34 2.83  31 2.87   9 2.89   7 2.90  61 2.96  43 3.27
  12  0.623  0.871  0.540-  13 2.74  32 2.78  23 2.80  33 2.85  62 2.89  25 2.89   8 2.94  10 2.95
                            44 3.43
  13  0.742  0.843  0.462-  12 2.74  17 2.87   4 2.88   1 2.90  28 2.94  63 2.98  41 3.05  23 3.09
                            57 3.27  62 3.46
  14  0.745  0.395  0.635-  74 2.00  76 2.01  79 2.23  42 2.91   2 2.96  27 2.99  18 3.04  64 3.08
                             3 3.09  58 3.12
  15  0.394  0.847  0.369-  22 2.68  19 2.76  25 2.83  34 2.84   9 2.85  39 2.98   1 3.16  46 3.43

  16  0.389  0.374  0.547-  21 2.63  20 2.81  10 2.84  26 2.90  40 2.91  33 2.92  37 2.95  31 3.03
                             2 3.20
  17  0.619  0.602  0.458-  33 2.76  25 2.81  31 2.85   9 2.87  13 2.87   7 2.89  61 2.95  35 3.03
                            23 3.03   2 3.16   1 3.40  63 3.44
  18  0.632  0.122  0.631-  72 2.03  71 2.05  74 2.08  32 2.67  10 2.89  62 2.90   8 2.92  26 2.96
                            14 3.04  64 3.17  36 3.18
  19  0.279  0.834  0.451-  15 2.76  35 2.94  46 2.96  39 2.97  25 2.99  44 2.99  60 3.07  51 3.08
                            47 3.12  21 3.28  56 3.36
  20  0.273  0.349  0.630-  69 2.00  70 2.05  67 2.18  16 2.81  36 2.97  48 3.02  52 3.06  40 3.07
                            59 3.08  26 3.15  45 3.21
  21  0.275  0.591  0.534-  80 2.09  82 2.17  16 2.63  35 2.88  37 2.91  47 2.92  52 3.01  44 3.02
                            45 3.09  33 3.11  59 3.18  56 3.18  19 3.28
  22  0.283  0.077  0.361-  15 2.68  46 2.97  43 2.97  34 2.99  51 3.02  55 3.10  60 3.10
  23  0.742  0.636  0.548-  79 2.17  12 2.80   2 2.83  30 2.88  27 2.93   3 2.94  17 3.03  42 3.05
                            63 3.06  13 3.09   5 3.17
  24  0.740  0.115  0.366-  29 2.73  11 2.75  28 2.85   4 2.86   1 2.88  41 3.00
  25  0.496  0.836  0.458-  35 2.78  17 2.81  15 2.83   1 2.88  12 2.89  33 2.91   4 2.92  19 2.99
                            46 2.99  44 3.01
  26  0.500  0.366  0.636-  70 1.90  75 1.92  74 1.96   3 2.84  36 2.87  16 2.90  18 2.96   2 2.98
                            45 3.14  20 3.15
  27  0.872  0.648  0.631-  76 2.03  79 2.03  68 2.06  77 2.12   5 2.73  58 2.73   8 2.76  23 2.93
                            30 2.97  54 2.99  14 2.99  42 3.46
  28  0.847  0.110  0.455-   7 2.77   6 2.80  62 2.82  24 2.85  57 2.90  13 2.94  53 2.98  50 3.03
                            29 3.15   4 3.16  41 3.36
  29  0.852  0.349  0.376-  24 2.73   6 2.80   7 2.83  53 2.94  61 2.98  49 3.07  28 3.15  63 3.25

  30  0.868  0.874  0.558-  77 2.19   5 2.72   8 2.83  50 2.84  23 2.88  27 2.97  57 2.98  62 3.07
                            64 3.18  54 3.32
  31  0.522  0.339  0.461-   2 2.80   4 2.80  17 2.85   7 2.85  35 2.86  11 2.87  46 2.95  16 3.03
                            10 3.05  43 3.11
  32  0.527  0.888  0.629-  78 1.88  72 2.01  65 2.01   3 2.64  18 2.67  36 2.68  12 2.78   8 2.80
                            45 3.07  44 3.09
  33  0.499  0.633  0.536-   3 2.74  17 2.76  35 2.77   2 2.83  12 2.85  44 2.85  25 2.91  16 2.92
                            45 3.07  21 3.11
  34  0.499  0.102  0.365-  11 2.83   1 2.83  15 2.84   4 2.87  43 2.91  46 2.98  22 2.99
  35  0.400  0.580  0.451-  33 2.77  25 2.78   9 2.84  31 2.86  21 2.88  37 2.88  39 2.93  19 2.94
                            17 3.03  43 3.08
  36  0.402  0.101  0.635-  72 1.94  70 2.01  67 2.05  65 2.13  32 2.68  26 2.87  10 2.90  38 2.94
                            20 2.97  40 3.13  18 3.18  44 3.30
  37  0.255  0.366  0.464-  35 2.88  21 2.91  16 2.95  47 3.02  60 3.04  43 3.05  55 3.08  46 3.08
                            52 3.14  40 3.20  39 3.39
  38  0.234  0.912  0.636-  73 1.90  67 2.04  65 2.05  80 2.13  56 2.85  54 2.88  36 2.94  48 2.95
                            59 3.10  44 3.15  40 3.26  45 3.26
  39  0.252  0.614  0.376-  35 2.93  19 2.97  15 2.98  47 3.07  43 3.07  51 3.07  55 3.08  37 3.39
                            49 3.53
  40  0.258  0.135  0.548-  67 2.44  16 2.91  44 3.01  20 3.07  52 3.08  46 3.10  60 3.11  36 3.13
                            37 3.20  56 3.21  48 3.22  38 3.26  50 3.68
  41  0.865  0.859  0.370-   6 2.96  24 3.00  61 3.05  13 3.05  57 3.06  49 3.12   1 3.35  28 3.36
                            51 3.49  63 3.53
  42  0.868  0.374  0.549-  81 2.27   5 2.88  14 2.91  62 3.01  23 3.05  50 3.13   7 3.18  58 3.20
                            53 3.25  63 3.27  64 3.40  52 3.40   2 3.41  27 3.46
  43  0.381  0.352  0.373-  34 2.91  22 2.97  37 3.05  39 3.07  35 3.08   9 3.10  31 3.11  55 3.26
                            11 3.27  46 3.29
  44  0.374  0.869  0.547-  80 2.33  65 2.39  33 2.85  19 2.99  40 3.01  25 3.01  21 3.02  32 3.09
                            45 3.14  38 3.15  10 3.17  36 3.30  56 3.32  46 3.39  12 3.43
  45  0.381  0.646  0.631-  69 2.10  75 2.11  80 2.24  65 2.25   3 2.92  32 3.07  33 3.07  21 3.09
                            26 3.14  44 3.14  20 3.21  59 3.25  38 3.26
  46  0.384  0.104  0.456-  31 2.95  19 2.96  22 2.97  34 2.98  25 2.99  10 3.06  37 3.08  40 3.10
                             4 3.24  60 3.27  43 3.29  44 3.39  15 3.43
  47  0.117  0.611  0.465-  82 2.30  21 2.92   5 3.02  37 3.02  39 3.07  19 3.12  53 3.14  49 3.15
                            57 3.17  56 3.27  52 3.28  63 3.42  51 3.52  55 3.80
  48  0.101  0.153  0.634-  66 2.12  67 2.14  81 2.23  38 2.95  54 3.01  20 3.02  58 3.07  50 3.10
                            52 3.13  40 3.22  64 3.30  56 3.76
  49  0.996  0.593  0.368-  63 3.05  29 3.07  41 3.12  47 3.15  51 3.16  55 3.23  53 3.44  39 3.53
                            61 3.65  57 3.82
  50  0.993  0.102  0.537-  81 2.17  30 2.84  57 2.94  28 3.03  48 3.10  56 3.11  42 3.13  53 3.18
                            60 3.19  52 3.20  64 3.27  62 3.56  40 3.68  54 3.87
  51  0.119  0.872  0.375-  60 3.00  22 3.02   6 3.05  39 3.07  19 3.08  57 3.16  49 3.16  41 3.49
                            47 3.52
  52  0.115  0.382  0.553-  82 2.23  81 2.25  21 3.01  20 3.06  40 3.08  59 3.10   5 3.12  48 3.13
                            37 3.14  50 3.20  53 3.23  47 3.28  42 3.40  58 3.42
  53  1.000  0.331  0.453-   6 2.91  29 2.94  28 2.98  60 3.06  63 3.08  55 3.09  47 3.14  50 3.18
                            52 3.23  42 3.25  49 3.44
  54  0.029  0.858  0.647-  77 2.11  73 2.15  68 2.26  59 2.87  38 2.88  27 2.99  48 3.01  56 3.08
                            30 3.32  64 3.42   5 3.59  50 3.87
  55  0.145  0.332  0.368-   6 3.05  37 3.08  39 3.08  53 3.09  22 3.10  49 3.23  60 3.24  43 3.26
                            47 3.80
  56  0.134  0.851  0.548-  82 2.27  80 2.31  38 2.85   5 3.04  54 3.08  50 3.11  57 3.14  21 3.18
                            59 3.19  40 3.21  47 3.27  44 3.32  19 3.36  60 3.55  48 3.76
  57  0.979  0.876  0.465-  28 2.90  50 2.94  30 2.98  41 3.06  63 3.11  60 3.13  56 3.14  51 3.16
                            47 3.17   5 3.21  13 3.27   6 3.37  49 3.82
  58  0.969  0.406  0.653-  76 2.09  66 2.10  81 2.21  68 2.22  27 2.73  48 3.07  14 3.12  64 3.14
                            42 3.20  59 3.22  52 3.42
  59  0.146  0.615  0.630-  69 2.14  68 2.16  73 2.21  80 2.25  82 2.29  54 2.87  20 3.08  52 3.10
                            38 3.10  21 3.18  56 3.19  58 3.22  45 3.25   5 3.33
  60  0.147  0.092  0.451-  51 3.00  37 3.04  53 3.06  19 3.07   6 3.08  22 3.10  40 3.11  57 3.13
                            50 3.19  55 3.24  46 3.27  56 3.55
  61  0.731  0.606  0.367-   1 2.93  17 2.95   9 2.95  11 2.96  29 2.98  41 3.05  63 3.17  49 3.65

  62  0.735  0.126  0.540-  28 2.82  12 2.89  18 2.90   4 2.99  42 3.01   2 3.03   7 3.06  30 3.07
                            10 3.08  64 3.18  13 3.46  50 3.56
  63  0.869  0.592  0.458-   5 2.85  13 2.98  49 3.05  23 3.06   7 3.07  53 3.08  57 3.11  61 3.17
                            29 3.25  42 3.27  47 3.42  17 3.44  41 3.53
  64  0.862  0.120  0.635-  71 2.11  66 2.20  77 2.42  81 2.61  14 3.08  58 3.14  18 3.17  62 3.18
                             8 3.18  30 3.18  50 3.27  48 3.30  42 3.40  54 3.42
  65  0.381  0.881  0.634-  32 2.01  38 2.05  36 2.13  45 2.25  44 2.39
  66  0.982  0.202  0.680-  58 2.10  48 2.12  64 2.20
  67  0.254  0.123  0.636-  38 2.04  36 2.05  48 2.14  20 2.18  40 2.44
  68  0.006  0.629  0.664-  27 2.06  59 2.16  58 2.22  54 2.26
  69  0.271  0.532  0.666-  20 2.00  45 2.10  59 2.14
  70  0.392  0.286  0.669-  26 1.90  36 2.01  20 2.05
  71  0.742  0.031  0.671-   8 2.04  18 2.05  64 2.11
  72  0.518  0.057  0.672-  36 1.94  32 2.01  18 2.03
  73  0.165  0.794  0.679-  38 1.90  54 2.15  59 2.21
  74  0.626  0.315  0.665-  26 1.96  14 2.00  18 2.08
  75  0.502  0.550  0.664-   3 1.84  26 1.92  45 2.11
  76  0.839  0.493  0.678-  14 2.01  27 2.03  58 2.09
  77  0.878  0.869  0.637-   8 2.06  54 2.11  27 2.12  30 2.19  64 2.42
  78  0.610  0.779  0.668-  32 1.88   3 1.90   8 2.02
  79  0.726  0.624  0.626-   3 1.84  27 2.03   8 2.16  23 2.17  14 2.23
  80  0.258  0.739  0.589-  21 2.09  38 2.13  45 2.24  59 2.25  56 2.31  44 2.33
  81  0.992  0.269  0.590-  50 2.17  58 2.21  48 2.23  52 2.25  42 2.27  64 2.61
  82  0.121  0.615  0.548-   5 2.05  21 2.17  52 2.23  56 2.27  59 2.29  47 2.30
 
  LATTYP: Found a simple orthorhombic cell.
 ALAT       =     9.5644817352
 B/A-ratio  =     1.4398428730
 C/A-ratio  =     2.8922184390
  
  Lattice vectors:
  
 A1 = (   0.0000000000,  -9.5644817352,   0.0000000000)
 A2 = ( -13.7713508606,   0.0000000000,   0.0000000000)
 A3 = (   0.0000000000,   0.0000000000, -27.6625704340)


Analysis of symmetry for initial positions (statically):
=====================================================================
 Subroutine PRICEL returns:
 Original cell was already a primitive cell.
 

 Routine SETGRP: Setting up the symmetry group for a 
 simple orthorhombic supercell.


 Subroutine GETGRP returns: Found  1 space group operations
 (whereof  1 operations were pure point group operations)
 out of a pool of  8 trial point group operations.


The static configuration has the point symmetry C_1 .


Analysis of symmetry for dynamics (positions and initial velocities):
=====================================================================
 Subroutine PRICEL returns:
 Original cell was already a primitive cell.
 

 Routine SETGRP: Setting up the symmetry group for a 
 simple orthorhombic supercell.


 Subroutine GETGRP returns: Found  1 space group operations
 (whereof  1 operations were pure point group operations)
 out of a pool of  8 trial point group operations.


The dynamic configuration has the point symmetry C_1 .


Analysis of constrained symmetry for selective dynamics:
=====================================================================
 Subroutine PRICEL returns:
 Original cell was already a primitive cell.
 

 Routine SETGRP: Setting up the symmetry group for a 
 simple orthorhombic supercell.


 Subroutine GETGRP returns: Found  1 space group operations
 (whereof  1 operations were pure point group operations)
 out of a pool of  8 trial point group operations.


The constrained configuration has the point symmetry C_1 .


 Subroutine INISYM returns: Found  1 space group operations
 (whereof  1 operations are pure point group operations),
 and found     1 'primitive' translations

 
 
 KPOINTS: k-points                                

Automatic generation of k-mesh.
Space group operators:
 irot       det(A)        alpha          n_x          n_y          n_z        tau_x        tau_y        tau_z
    1     1.000000     0.000000     1.000000     0.000000     0.000000     0.000000     0.000000     0.000000
 
 Subroutine IBZKPT returns following result:
 ===========================================
 
 Found      5 irreducible k-points:
 
 Following reciprocal coordinates:
            Coordinates               Weight
  0.000000  0.000000  0.000000      1.000000
  0.333333  0.000000  0.000000      2.000000
  0.000000  0.333333  0.000000      2.000000
  0.333333  0.333333  0.000000      2.000000
 -0.333333  0.333333  0.000000      2.000000
 
 Following cartesian coordinates:
            Coordinates               Weight
  0.000000  0.000000  0.000000      1.000000
  0.024205  0.000000  0.000000      2.000000
  0.000000  0.034851  0.000000      2.000000
  0.024205  0.034851  0.000000      2.000000
 -0.024205  0.034851  0.000000      2.000000
 


--------------------------------------------------------------------------------------------------------




 Dimension of arrays:
   k-points           NKPTS =      5   k-points in BZ     NKDIM =      5   number of bands    NBANDS=    272
   number of dos      NEDOS =    301   number of ions     NIONS =     82
   non local maximal  LDIM  =      6   non local SUM 2l+1 LMDIM =     18
   total plane-waves  NPLWV = 846720
   max r-space proj   IRMAX =      1   max aug-charges    IRDMAX=  25433
   dimension x,y,z NGX =    84 NGY =   60 NGZ =  168
   dimension x,y,z NGXF=   168 NGYF=  120 NGZF=  336
   support grid    NGXF=   168 NGYF=  120 NGZF=  336
   ions per type =               6  10   4  18  26  18
 NGX,Y,Z   is equivalent  to a cutoff of  10.14, 10.43, 10.10 a.u.
 NGXF,Y,Z  is equivalent  to a cutoff of  20.28, 20.86, 20.19 a.u.


 I would recommend the setting:
   dimension x,y,z NGX =    83 NGY =   57 NGZ =  166
 SYSTEM =  (110) surface                           
 POSCAR =  Al Nb Ta Ti Zr                          

 Startparameter for this run:
   NWRITE =      2    write-flag & timer
   PREC   = normal    normal or accurate (medium, high low for compatibility)
   ISTART =      0    job   : 0-new  1-cont  2-samecut
   ICHARG =      2    charge: 1-file 2-atom 10-const
   ISPIN  =      1    spin polarized calculation?
   LNONCOLLINEAR =      F non collinear calculations
   LSORBIT =      F    spin-orbit coupling
   INIWAV =      1    electr: 0-lowe 1-rand  2-diag
   LASPH  =      F    aspherical Exc in radial PAW
   METAGGA=      F    non-selfconsistent MetaGGA calc.

 Electronic Relaxation 1
   ENCUT  =  600.0 eV  44.10 Ry    6.64 a.u.  27.50 19.10 55.25*2*pi/ulx,y,z
   ENINI  =  600.0     initial cutoff
   ENAUG  =  605.4 eV  augmentation charge cutoff
   NELM   =     60;   NELMIN=  2; NELMDL= -5     # of ELM steps 
   EDIFF  = 0.1E-03   stopping-criterion for ELM
   LREAL  =      F    real-space projection
   NLSPLINE    = F    spline interpolate recip. space projectors
   LCOMPAT=      F    compatible to vasp.4.4
   GGA_COMPAT  = T    GGA compatible to vasp.4.4-vasp.4.6
   LMAXPAW     = -100 max onsite density
   LMAXMIX     =    2 max onsite mixed and CHGCAR
   VOSKOWN=      0    Vosko Wilk Nusair interpolation
   ROPT   =    0.00000   0.00000   0.00000   0.00000
   ROPT   =    0.00000   0.00000
 Ionic relaxation
   EDIFFG = 0.1E-02   stopping-criterion for IOM
   NSW    =      0    number of steps for IOM
   NBLOCK =      1;   KBLOCK =      1    inner block; outer block 
   IBRION =     -1    ionic relax: 0-MD 1-quasi-New 2-CG
   NFREE  =      0    steps in history (QN), initial steepest desc. (CG)
   ISIF   =      2    stress and relaxation
   IWAVPR =     10    prediction:  0-non 1-charg 2-wave 3-comb
   ISYM   =      2    0-nonsym 1-usesym 2-fastsym
   LCORR  =      T    Harris-Foulkes like correction to forces

   POTIM  = 0.1000    time-step for ionic-motion
   TEIN   =    0.0    initial temperature
   TEBEG  =    0.0;   TEEND  =   0.0 temperature during run
   SMASS  =  -3.00    Nose mass-parameter (am)
   estimated Nose-frequenzy (Omega)   =  0.10E-29 period in steps =****** mass=  -0.433E-26a.u.
   SCALEE = 1.0000    scale energy and forces
   NPACO  =    256;   APACO  = 16.0  distance and # of slots for P.C.
   PSTRESS=    0.0 pullay stress

  Mass of Ions in am
   POMASS =  26.98 92.91180.95 47.88 91.22 16.00
  Ionic Valenz
   ZVAL   =   3.00 13.00  5.00  4.00  4.00  6.00
  Atomic Wigner-Seitz radii
   RWIGS  =  -1.00 -1.00 -1.00 -1.00 -1.00 -1.00
  virtual crystal weights 
   VCA    =   1.00  1.00  1.00  1.00  1.00  1.00
   NELECT =     452.0000    total number of electrons
   NUPDOWN=      -1.0000    fix difference up-down

 DOS related values:
   EMIN   =  10.00;   EMAX   =-10.00  energy-range for DOS
   EFERMI =   0.00
   ISMEAR =     2;   SIGMA  =   0.10  broadening in eV -4-tet -1-fermi 0-gaus

 Electronic relaxation 2 (details)
   IALGO  =     68    algorithm
   LDIAG  =      T    sub-space diagonalisation (order eigenvalues)
   LSUBROT=      F    optimize rotation matrix (better conditioning)
   TURBO    =      0    0=normal 1=particle mesh
   IRESTART =      0    0=no restart 2=restart with 2 vectors
   NREBOOT  =      0    no. of reboots
   NMIN     =      0    reboot dimension
   EREF     =   0.00    reference energy to select bands
   IMIX   =      4    mixing-type and parameters
     AMIX     =   0.40;   BMIX     =  1.00
     AMIX_MAG =   1.60;   BMIX_MAG =  1.00
     AMIN     =   0.10
     WC   =   100.;   INIMIX=   1;  MIXPRE=   1;  MAXMIX= -45

 Intra band minimization:
   WEIMIN = 0.0000     energy-eigenvalue tresh-hold
   EBREAK =  0.92E-07  absolut break condition
   DEPER  =   0.30     relativ break condition  

   TIME   =   0.40     timestep for ELM

  volume/ion in A,a.u.               =      44.43       299.86
  Fermi-wavevector in a.u.,A,eV,Ry     =   0.816477  1.542918  9.070123  0.666635
  Thomas-Fermi vector in A             =   1.926753
 
 Write flags
   LWAVE  =      F    write WAVECAR
   LCHARG =      T    write CHGCAR
   LVTOT  =      F    write LOCPOT, total local potential
   LVHAR  =      F    write LOCPOT, Hartree potential only
   LELF   =      F    write electronic localiz. function (ELF)
   LORBIT =      0    0 simple, 1 ext, 2 COOP (PROOUT)


 Dipole corrections
   LMONO  =      F    monopole corrections only (constant potential shift)
   LDIPOL =      F    correct potential (dipole corrections)
   IDIPOL =      0    1-x, 2-y, 3-z, 4-all directions 
   EPSILON=  1.0000000 bulk dielectric constant

 Exchange correlation treatment:
   GGA     =    --    GGA type
   LEXCH   =     8    internal setting for exchange type
   VOSKOWN=      0    Vosko Wilk Nusair interpolation
   LHFCALC =     F    Hartree Fock is set to
   LHFONE  =     F    Hartree Fock one center treatment
   AEXX    =    0.0000 exact exchange contribution

 Linear response parameters
   LEPSILON=     F    determine dielectric tensor
   LRPA    =     F    only Hartree local field effects (RPA)
   LNABLA  =     F    use nabla operator in PAW spheres
   LVEL    =     F    velocity operator in full k-point grid
   LINTERFAST=   F  fast interpolation
   KINTER  =     0    interpolate to denser k-point grid
   CSHIFT  =0.1000    complex shift for real part using Kramers Kronig
   OMEGAMAX=  -1.0    maximum frequency
   DEG_THRESHOLD= 0.2000000E-02 threshold for treating states as degnerate
   RTIME   =    0.100 relaxation time in fs

 Orbital magnetization related:
   ORBITALMAG=     F  switch on orbital magnetization
   LCHIMAG   =     F  perturbation theory with respect to B field
   DQ        =  0.001000  dq finite difference perturbation B field



--------------------------------------------------------------------------------------------------------


 Static calculation
 charge density and potential will be updated during run
 non-spin polarized calculation
 RMM-DIIS sequential band-by-band and
  variant of blocked Davidson during initial phase
 perform sub-space diagonalisation
    before iterative eigenvector-optimisation
 modified Broyden-mixing scheme, WC =      100.0
 initial mixing is a Kerker type mixing with AMIX =  0.4000 and BMIX =      1.0000
 Hartree-type preconditioning will be used
 using additional bands           46
 reciprocal scheme for non local part
 use partial core corrections
 calculate Harris-corrections to forces 
   (improved forces if not selfconsistent)
 use gradient corrections 
 use of overlap-Matrix (Vanderbilt PP)
 Methfessel and Paxton  Order N= 2 SIGMA  =   0.10


--------------------------------------------------------------------------------------------------------


  energy-cutoff  :      600.00
  volume of cell :     3643.60
      direct lattice vectors                 reciprocal lattice vectors
    13.771350861  0.000000000  0.000000000     0.072614518  0.000000000  0.000000000
     0.000000000  9.564481735  0.000000000     0.000000000  0.104553496  0.000000000
     0.000000000  0.000000000 27.662570434     0.000000000  0.000000000  0.036149931

  length of vectors
    13.771350861  9.564481735 27.662570434     0.072614518  0.104553496  0.036149931


 
 k-points in units of 2pi/SCALE and weight: k-points                                
   0.00000000  0.00000000  0.00000000       0.111
   0.02420484  0.00000000  0.00000000       0.222
   0.00000000  0.03485117  0.00000000       0.222
   0.02420484  0.03485117  0.00000000       0.222
  -0.02420484  0.03485117  0.00000000       0.222
 
 k-points in reciprocal lattice and weights: k-points                                
   0.00000000  0.00000000  0.00000000       0.111
   0.33333333  0.00000000  0.00000000       0.222
   0.00000000  0.33333333  0.00000000       0.222
   0.33333333  0.33333333  0.00000000       0.222
  -0.33333333  0.33333333  0.00000000       0.222
 
 position of ions in fractional coordinates (direct lattice) 
   0.62276447  0.86746430  0.37590333
   0.62056082  0.39661112  0.54730429
   0.59264951  0.62901909  0.62380571
   0.61839700  0.08363760  0.44965952
   0.97230350  0.63508115  0.54613486
   0.97963780  0.12056648  0.37767599
   0.72857308  0.34338307  0.45816820
   0.72863095  0.84926694  0.63246033
   0.51739597  0.60805875  0.36719826
   0.51165580  0.13514325  0.54556505
   0.61811078  0.34297293  0.36889183
   0.62282987  0.87141125  0.54039578
   0.74231148  0.84345710  0.46199300
   0.74500723  0.39453016  0.63457893
   0.39405298  0.84738672  0.36896032
   0.38894143  0.37400664  0.54733945
   0.61928761  0.60162497  0.45752798
   0.63238601  0.12178542  0.63107569
   0.27944195  0.83362269  0.45088327
   0.27251061  0.34896310  0.63018725
   0.27475119  0.59058987  0.53443262
   0.28324246  0.07725573  0.36149931
   0.74201319  0.63578268  0.54770558
   0.74002355  0.11549973  0.36646499
   0.49591756  0.83582580  0.45790018
   0.50042316  0.36599763  0.63610333
   0.87202644  0.64782781  0.63125831
   0.84724605  0.11017048  0.45460239
   0.85243583  0.34907103  0.37639265
   0.86782774  0.87446682  0.55775631
   0.52175105  0.33942658  0.46105252
   0.52708354  0.88763503  0.62881069
   0.49891496  0.63328391  0.53648139
   0.49943882  0.10200214  0.36464270
   0.40016663  0.58028412  0.45130253
   0.40222567  0.10139112  0.63451562
   0.25505811  0.36595738  0.46399110
   0.23402749  0.91207099  0.63600805
   0.25182599  0.61397660  0.37627308
   0.25783599  0.13479754  0.54780215
   0.86539888  0.85904646  0.37036829
   0.86783722  0.37401799  0.54931695
   0.38059813  0.35186696  0.37331264
   0.37427165  0.86905806  0.54745773
   0.38112606  0.64577813  0.63081442
   0.38408008  0.10357511  0.45579618
   0.11657381  0.61110574  0.46457054
   0.10058332  0.15324294  0.63358665
   0.99629861  0.59295863  0.36811234
   0.99254983  0.10232583  0.53672527
   0.11869311  0.87196302  0.37467704
   0.11488196  0.38232510  0.55313599
   0.99977952  0.33051389  0.45306987
   0.02943638  0.85765716  0.64675350
   0.14482272  0.33176249  0.36788561
   0.13380975  0.85109224  0.54826102
   0.97888047  0.87608504  0.46520830
   0.96869945  0.40609944  0.65292997
   0.14639927  0.61454283  0.62951680
   0.14721048  0.09173214  0.45072276
   0.73135245  0.60578495  0.36679988
   0.73481379  0.12644321  0.53960114
   0.86923259  0.59196168  0.45825814
   0.86233146  0.12038602  0.63528857
   0.38140842  0.88082636  0.63366620
   0.98215201  0.20150865  0.67959878
   0.25435447  0.12324248  0.63572831
   0.00612893  0.62918867  0.66377814
   0.27109372  0.53157422  0.66565792
   0.39178453  0.28649629  0.66858630
   0.74191553  0.03118221  0.67062045
   0.51777230  0.05725370  0.67153584
   0.16460521  0.79372401  0.67887219
   0.62554962  0.31492925  0.66524738
   0.50172236  0.54964565  0.66395179
   0.83919698  0.49259996  0.67837100
   0.87768044  0.86870898  0.63686548
   0.60982698  0.77893054  0.66792056
   0.72593413  0.62445605  0.62564910
   0.25820832  0.73920112  0.58904581
   0.99194564  0.26948031  0.58951130
   0.12063843  0.61475418  0.54760751
 
 position of ions in cartesian coordinates  (Angst):
   8.57630799  8.29684649 10.39845223
   8.54596071  3.79337981 15.13984350
   8.16158428  6.01624161 17.25606941
   8.51616202  0.79995025 12.43873821
  13.38993261  6.07422202 15.10749400
  13.49093588  1.15315590 10.44748880
  10.03343557  3.28428114 12.67411000
  10.03423250  8.12279813 17.49547831
   7.12524148  5.81576681 10.15764776
   7.04619157  1.29257516 15.09173174
   8.51222037  3.28035836 10.20449636
   8.57720867  8.33459694 14.94873645
  10.22263181  8.06723005 12.77991378
  10.25975592  3.77347656 17.55408433
   5.42664188  8.10481479 10.20639088
   5.35624894  3.57717966 15.14081618
   8.52842696  5.75423100 12.65640004
   8.70880961  1.16481447 17.45717585
   3.84829318  7.97316903 12.47259035
   3.75283920  3.33765121 17.43259928
   3.78369505  5.64868603 14.78378009
   3.90063135  0.73891098 10.00000000
  10.21852399  6.08093179 15.15094427
  10.19112400  1.10469510 10.13736353
   6.82945470  7.99424061 12.66669595
   6.89150297  3.50057769 17.59625320
  12.00898212  6.19613729 17.46222734
  11.66772263  1.05372358 12.57547056
  11.73919286  3.33868345 10.41198829
  11.95116026  8.36382196 15.42897318
   7.18521672  3.24643930 12.75389771
   7.25865237  8.48976900 17.39451995
   6.87073292  6.05703241 14.84045418
   6.87794726  0.97559764 10.08695433
   5.51083508  5.55011685 12.48418803
   5.53919085  0.96975347 17.55233316
   3.51249472  3.50019267 12.83518635
   3.22287462  8.72348633 17.59361736
   3.46798404  5.87236796 10.40868071
   3.55074995  1.28926856 15.15361556
  11.91771166  8.21633417 10.24533883
  11.95129082  3.57728827 15.19551876
   5.24135036  3.36542512 10.32678719
   5.15422619  8.31208998 15.14408788
   5.24862072  6.17653308 17.44994829
   5.28930157  0.99064225 12.60849381
   1.60537885  5.84490969 12.85121538
   1.38516818  1.46568927 17.52663541
  13.72037774  5.67134198 10.18293350
  13.66875193  0.97869354 14.84720070
   1.63456451  8.33987442 10.36453009
   1.58207975  3.65674146 15.30116333
  13.76831459  3.16119411 12.53307716
   0.40537866  8.20304621 17.89086432
   1.99440444  3.17313630 10.17666150
   1.84274107  8.14025614 15.16630922
  13.48050634  8.37929939 12.86885734
  13.34030007  3.88413066 18.06172124
   2.01611576  5.87778369 17.41405275
   2.02728715  0.87737042 12.46815015
  10.07171117  5.79401911 10.14662739
  10.11937849  1.20936378 14.92675443
  11.97050705  5.66180669 12.67659812
  11.87546912  1.15142986 17.57371486
   5.25250911  8.42464768 17.52883591
  13.52555995  1.92732580 18.79944910
   3.50280471  1.17875050 17.58587907
   0.08440367  6.01786352 18.36180954
   3.73332679  5.08423193 18.41380909
   5.39540228  2.74018855 18.49481550
  10.21717906  0.29824172 18.55108556
   7.13042407  0.54760193 18.57640737
   2.26683613  7.59155880 18.77934988
   8.61466327  3.01213511 18.40245237
   6.90939472  5.25707583 18.36661316
  11.55687604  4.71146333 18.76548548
  12.08684524  8.30875113 17.61733625
   8.39814137  7.45006690 18.47639949
   9.99709357  5.97259847 17.30706216
   3.55587738  7.07007557 16.29452127
  13.66043148  2.57743949 16.30739778
   1.66135413  5.87980515 15.14823135
 


--------------------------------------------------------------------------------------------------------


 k-point  1 :   0.0000 0.0000 0.0000  plane waves:  121663
 k-point  2 :   0.3333 0.0000 0.0000  plane waves:  121577
 k-point  3 :   0.0000 0.3333 0.0000  plane waves:  121622
 k-point  4 :   0.3333 0.3333 0.0000  plane waves:  121647
 k-point  5 :  -0.3333 0.3333 0.0000  plane waves:  121647

 maximum and minimum number of plane-waves per node :      5107     5041

 maximum number of plane-waves:    121663
 maximum index in each direction: 
   IXMAX=   27   IYMAX=   19   IZMAX=   55
   IXMIN=  -27   IYMIN=  -19   IZMIN=  -55

 WARNING: aliasing errors must be expected set NGX to 110 to avoid them
 WARNING: aliasing errors must be expected set NGY to  78 to avoid them
 WARNING: aliasing errors must be expected set NGZ to 222 to avoid them
 aliasing errors are usually negligible using standard VASP settings
 and one can safely disregard these warnings

 parallel 3D FFT for wavefunctions:
    minimum data exchange during FFTs selected (reduces bandwidth)
 parallel 3D FFT for charge:
    minimum data exchange during FFTs selected (reduces bandwidth)


 total amount of memory used by VASP on root node   136846. kBytes
========================================================================

   base      :      30000. kBytes
   nonl-proj :      28576. kBytes
   fftplans  :       6516. kBytes
   grid      :      15878. kBytes
   one-center:         62. kBytes
   wavefun   :      55814. kBytes
 
     INWAV:  cpu time    0.0000: real time    0.0000
 Broyden mixing: mesh for mixing (old mesh)
   NGX = 55   NGY = 39   NGZ =111
  (NGX  =168   NGY  =120   NGZ  =336)
  gives a total of 238095 points

 initial charge density was supplied:
 charge density of overlapping atoms calculated
 number of electron     452.0000000 magnetization 
 keeping initial charge density in first step


--------------------------------------------------------------------------------------------------------


 Maximum index for augmentation-charges         1033 (set IRDMAX)


--------------------------------------------------------------------------------------------------------


 First call to EWALD:  gamma=   0.115
 Maximum number of real-space cells 3x 4x 2
 Maximum number of reciprocal cells 3x 2x 5

 FEWALD executed in parallel
    FEWALD:  cpu time    0.0028: real time    0.0028


----------------------------------------- Iteration    1(   1)  ---------------------------------------


    POTLOK:  cpu time    0.1143: real time    0.1197
    SETDIJ:  cpu time    0.0156: real time    0.0187
     EDDAV:  cpu time   21.6522: real time   21.6931
       DOS:  cpu time    0.0017: real time    0.0017
    --------------------------------------------
      LOOP:  cpu time   21.7858: real time   21.8565

 eigenvalue-minimisations  :  2824
 total energy-change (2. order) : 0.5794979E+04  (-0.1723339E+05)
 number of electron     452.0000000 magnetization 
 augmentation part      452.0000000 magnetization 

 Free energy of the ion-electron system (eV)
  ---------------------------------------------------
  alpha Z        PSCENC =       718.62171596
  Ewald energy   TEWEN  =    109263.69850411
  -Hartree energ DENC   =   -134349.06863984
  -exchange      EXHF   =         0.00000000
  -V(xc)+E(xc)   XCENC  =     -2585.21705683
  PAW double counting   =     25677.17170719   -21618.31399993
  entropy T*S    EENTRO =         0.00522196
  eigenvalues    EBANDS =       779.56355731
  atomic energy  EATOM  =     27908.51820818
  Solvation  Ediel_sol  =         0.00000000
  ---------------------------------------------------
  free energy    TOTEN  =      5794.97921812 eV

  energy without entropy =     5794.97399616  energy(sigma->0) =     5794.97791263


--------------------------------------------------------------------------------------------------------




----------------------------------------- Iteration    1(   2)  ---------------------------------------


     EDDAV:  cpu time   21.7878: real time   21.7973
       DOS:  cpu time    0.0016: real time    0.0016
    --------------------------------------------
      LOOP:  cpu time   21.7907: real time   21.8014

 eigenvalue-minimisations  :  2864
 total energy-change (2. order) :-0.4942686E+04  (-0.4792104E+04)
 number of electron     452.0000000 magnetization 
 augmentation part      452.0000000 magnetization 

 Free energy of the ion-electron system (eV)
  ---------------------------------------------------
  alpha Z        PSCENC =       718.62171596
  Ewald energy   TEWEN  =    109263.69850411
  -Hartree energ DENC   =   -134349.06863984
  -exchange      EXHF   =         0.00000000
  -V(xc)+E(xc)   XCENC  =     -2585.21705683
  PAW double counting   =     25677.17170719   -21618.31399993
  entropy T*S    EENTRO =         0.00157212
  eigenvalues    EBANDS =     -4163.11898728
  atomic energy  EATOM  =     27908.51820818
  Solvation  Ediel_sol  =         0.00000000
  ---------------------------------------------------
  free energy    TOTEN  =       852.29302369 eV

  energy without entropy =      852.29145157  energy(sigma->0) =      852.29263066


--------------------------------------------------------------------------------------------------------




----------------------------------------- Iteration    1(   3)  ---------------------------------------


     EDDAV:  cpu time   34.0740: real time   34.0896
       DOS:  cpu time    0.0016: real time    0.0016
    --------------------------------------------
      LOOP:  cpu time   34.0773: real time   34.0943

 eigenvalue-minimisations  :  4928
 total energy-change (2. order) :-0.1410502E+04  (-0.1366024E+04)
 number of electron     452.0000000 magnetization 
 augmentation part      452.0000000 magnetization 

 Free energy of the ion-electron system (eV)
  ---------------------------------------------------
  alpha Z        PSCENC =       718.62171596
  Ewald energy   TEWEN  =    109263.69850411
  -Hartree energ DENC   =   -134349.06863984
  -exchange      EXHF   =         0.00000000
  -V(xc)+E(xc)   XCENC  =     -2585.21705683
  PAW double counting   =     25677.17170719   -21618.31399993
  entropy T*S    EENTRO =         0.00982413
  eigenvalues    EBANDS =     -5573.62922662
  atomic energy  EATOM  =     27908.51820818
  Solvation  Ediel_sol  =         0.00000000
  ---------------------------------------------------
  free energy    TOTEN  =      -558.20896365 eV

  energy without entropy =     -558.21878777  energy(sigma->0) =     -558.21141968


--------------------------------------------------------------------------------------------------------




----------------------------------------- Iteration    1(   4)  ---------------------------------------


     EDDAV:  cpu time   29.3279: real time   29.3407
       DOS:  cpu time    0.0016: real time    0.0016
    --------------------------------------------
      LOOP:  cpu time   29.3307: real time   29.3449

 eigenvalue-minimisations  :  4136
 total energy-change (2. order) :-0.2129091E+03  (-0.2068062E+03)
 number of electron     452.0000000 magnetization 
 augmentation part      452.0000000 magnetization 

 Free energy of the ion-electron system (eV)
  ---------------------------------------------------
  alpha Z        PSCENC =       718.62171596
  Ewald energy   TEWEN  =    109263.69850411
  -Hartree energ DENC   =   -134349.06863984
  -exchange      EXHF   =         0.00000000
  -V(xc)+E(xc)   XCENC  =     -2585.21705683
  PAW double counting   =     25677.17170719   -21618.31399993
  entropy T*S    EENTRO =        -0.00001376
  eigenvalues    EBANDS =     -5786.52848541
  atomic energy  EATOM  =     27908.51820818
  Solvation  Ediel_sol  =         0.00000000
  ---------------------------------------------------
  free energy    TOTEN  =      -771.11806033 eV

  energy without entropy =     -771.11804657  energy(sigma->0) =     -771.11805689


--------------------------------------------------------------------------------------------------------




----------------------------------------- Iteration    1(   5)  ---------------------------------------


     EDDAV:  cpu time   34.8823: real time   34.8949
       DOS:  cpu time    0.0017: real time    0.0017
    CHARGE:  cpu time    0.3456: real time    0.3472
    MIXING:  cpu time    0.0078: real time    0.0093
    --------------------------------------------
      LOOP:  cpu time   35.2390: real time   35.2563

 eigenvalue-minimisations  :  5064
 total energy-change (2. order) :-0.1786949E+02  (-0.1744118E+02)
 number of electron     451.9999943 magnetization 
 augmentation part       54.1697634 magnetization 

 Broyden mixing:
  rms(total) = 0.81299E+01    rms(broyden)= 0.81297E+01
  rms(prec ) = 0.85729E+01
  weight for this iteration     100.00

 Free energy of the ion-electron system (eV)
  ---------------------------------------------------
  alpha Z        PSCENC =       718.62171596
  Ewald energy   TEWEN  =    109263.69850411
  -Hartree energ DENC   =   -134349.06863984
  -exchange      EXHF   =         0.00000000
  -V(xc)+E(xc)   XCENC  =     -2585.21705683
  PAW double counting   =     25677.17170719   -21618.31399993
  entropy T*S    EENTRO =         0.00599897
  eigenvalues    EBANDS =     -5804.40399256
  atomic energy  EATOM  =     27908.51820818
  Solvation  Ediel_sol  =         0.00000000
  ---------------------------------------------------
  free energy    TOTEN  =      -788.98755475 eV

  energy without entropy =     -788.99355372  energy(sigma->0) =     -788.98905449


--------------------------------------------------------------------------------------------------------




----------------------------------------- Iteration    1(   6)  ---------------------------------------


    POTLOK:  cpu time    0.1003: real time    0.1003
    SETDIJ:  cpu time    0.0094: real time    0.0094
    EDDIAG:  cpu time    1.3618: real time    1.3633
  RMM-DIIS:  cpu time   24.7095: real time   24.7199
    ORTHCH:  cpu time    0.3412: real time    0.3412
       DOS:  cpu time    0.0015: real time    0.0015
    CHARGE:  cpu time    0.3361: real time    0.3363
    MIXING:  cpu time    0.0057: real time    0.0083
    --------------------------------------------
      LOOP:  cpu time   26.8677: real time   26.8842

 eigenvalue-minimisations  :  4498
 total energy-change (2. order) :-0.3350186E+02  (-0.1587855E+03)
 number of electron     451.9999960 magnetization 
 augmentation part       67.8220802 magnetization 

 Broyden mixing:
  rms(total) = 0.49813E+01    rms(broyden)= 0.49810E+01
  rms(prec ) = 0.66289E+01
  weight for this iteration     100.00

 eigenvalues of (default mixing * dielectric matrix)
  average eigenvalue GAMMA=   0.7884
  0.7884

 Free energy of the ion-electron system (eV)
  ---------------------------------------------------
  alpha Z        PSCENC =       718.62171596
  Ewald energy   TEWEN  =    109263.69850411
  -Hartree energ DENC   =   -135277.45322912
  -exchange      EXHF   =         0.00000000
  -V(xc)+E(xc)   XCENC  =     -2549.07905278
  PAW double counting   =     30448.03880983   -26399.49181454
  entropy T*S    EENTRO =        -0.00647338
  eigenvalues    EBANDS =     -4935.33608051
  atomic energy  EATOM  =     27908.51820818
  Solvation  Ediel_sol  =         0.00000000
  ---------------------------------------------------
  free energy    TOTEN  =      -822.48941225 eV

  energy without entropy =     -822.48293887  energy(sigma->0) =     -822.48779390


--------------------------------------------------------------------------------------------------------




----------------------------------------- Iteration    1(   7)  ---------------------------------------


    POTLOK:  cpu time    0.0966: real time    0.0966
    SETDIJ:  cpu time    0.0091: real time    0.0091
    EDDIAG:  cpu time    1.3390: real time    1.3394
  RMM-DIIS:  cpu time   23.0093: real time   23.0190
    ORTHCH:  cpu time    0.3416: real time    0.3419
       DOS:  cpu time    0.0016: real time    0.0016
    CHARGE:  cpu time    0.3574: real time    0.3574
    MIXING:  cpu time    0.0038: real time    0.0043
    --------------------------------------------
      LOOP:  cpu time   25.1604: real time   25.1730

 eigenvalue-minimisations  :  4134
 total energy-change (2. order) : 0.1229435E+01  (-0.4115904E+02)
 number of electron     451.9999961 magnetization 
 augmentation part       65.9865737 magnetization 

 Broyden mixing:
  rms(total) = 0.45098E+01    rms(broyden)= 0.45098E+01
  rms(prec ) = 0.78920E+01
  weight for this iteration     100.00

 eigenvalues of (default mixing * dielectric matrix)
  average eigenvalue GAMMA=   0.6828
  1.0151  0.3504

 Free energy of the ion-electron system (eV)
  ---------------------------------------------------
  alpha Z        PSCENC =       718.62171596
  Ewald energy   TEWEN  =    109263.69850411
  -Hartree energ DENC   =   -134569.04747037
  -exchange      EXHF   =         0.00000000
  -V(xc)+E(xc)   XCENC  =     -2553.97452126
  PAW double counting   =     31264.67515871   -27227.42423611
  entropy T*S    EENTRO =         0.00852446
  eigenvalues    EBANDS =     -5626.33586141
  atomic energy  EATOM  =     27908.51820818
  Solvation  Ediel_sol  =         0.00000000
  ---------------------------------------------------
  free energy    TOTEN  =      -821.25997773 eV

  energy without entropy =     -821.26850219  energy(sigma->0) =     -821.26210885


--------------------------------------------------------------------------------------------------------




----------------------------------------- Iteration    1(   8)  ---------------------------------------


    POTLOK:  cpu time    0.0965: real time    0.0965
    SETDIJ:  cpu time    0.0090: real time    0.0090
    EDDIAG:  cpu time    1.3840: real time    1.3843
  RMM-DIIS:  cpu time   24.2526: real time   24.2626
    ORTHCH:  cpu time    0.3425: real time    0.3425
       DOS:  cpu time    0.0016: real time    0.0016
    CHARGE:  cpu time    0.3375: real time    0.3375
    MIXING:  cpu time    0.0038: real time    0.0038
    --------------------------------------------
      LOOP:  cpu time   26.4297: real time   26.4416

 eigenvalue-minimisations  :  4390
 total energy-change (2. order) : 0.8845391E+02  (-0.2230801E+02)
 number of electron     451.9999960 magnetization 
 augmentation part       55.4380045 magnetization 

 Broyden mixing:
  rms(total) = 0.35004E+01    rms(broyden)= 0.35004E+01
  rms(prec ) = 0.49137E+01
  weight for this iteration     100.00

 eigenvalues of (default mixing * dielectric matrix)
  average eigenvalue GAMMA=   0.6541
  1.2999  0.4333  0.2290

 Free energy of the ion-electron system (eV)
  ---------------------------------------------------
  alpha Z        PSCENC =       718.62171596
  Ewald energy   TEWEN  =    109263.69850411
  -Hartree energ DENC   =   -134971.30598320
  -exchange      EXHF   =         0.00000000
  -V(xc)+E(xc)   XCENC  =     -2555.64673935
  PAW double counting   =     32266.06791606   -28233.30546507
  entropy T*S    EENTRO =         0.00260055
  eigenvalues    EBANDS =     -5129.45682439
  atomic energy  EATOM  =     27908.51820818
  Solvation  Ediel_sol  =         0.00000000
  ---------------------------------------------------
  free energy    TOTEN  =      -732.80606715 eV

  energy without entropy =     -732.80866770  energy(sigma->0) =     -732.80671728


--------------------------------------------------------------------------------------------------------




----------------------------------------- Iteration    1(   9)  ---------------------------------------


    POTLOK:  cpu time    0.0961: real time    0.0965
    SETDIJ:  cpu time    0.0090: real time    0.0090
    EDDIAG:  cpu time    1.3863: real time    1.3866
  RMM-DIIS:  cpu time   20.0325: real time   20.0412
    ORTHCH:  cpu time    0.3408: real time    0.3408
       DOS:  cpu time    0.0016: real time    0.0016
    CHARGE:  cpu time    0.3438: real time    0.3441
    MIXING:  cpu time    0.0043: real time    0.0050
    --------------------------------------------
      LOOP:  cpu time   22.2167: real time   22.2287

 eigenvalue-minimisations  :  3589
 total energy-change (2. order) : 0.3915433E+02  (-0.6315666E+01)
 number of electron     451.9999956 magnetization 
 augmentation part       57.0782972 magnetization 

 Broyden mixing:
  rms(total) = 0.20265E+01    rms(broyden)= 0.20265E+01
  rms(prec ) = 0.22850E+01
  weight for this iteration     100.00

 eigenvalues of (default mixing * dielectric matrix)
  average eigenvalue GAMMA=   0.7343
  1.6776  0.5218  0.5218  0.2158

 Free energy of the ion-electron system (eV)
  ---------------------------------------------------
  alpha Z        PSCENC =       718.62171596
  Ewald energy   TEWEN  =    109263.69850411
  -Hartree energ DENC   =   -134932.04235690
  -exchange      EXHF   =         0.00000000
  -V(xc)+E(xc)   XCENC  =     -2552.63679205
  PAW double counting   =     33382.08044746   -29342.24289237
  entropy T*S    EENTRO =        -0.00511238
  eigenvalues    EBANDS =     -5139.64346232
  atomic energy  EATOM  =     27908.51820818
  Solvation  Ediel_sol  =         0.00000000
  ---------------------------------------------------
  free energy    TOTEN  =      -693.65174032 eV

  energy without entropy =     -693.64662794  energy(sigma->0) =     -693.65046222


--------------------------------------------------------------------------------------------------------




----------------------------------------- Iteration    1(  10)  ---------------------------------------


    POTLOK:  cpu time    0.0968: real time    0.0968
    SETDIJ:  cpu time    0.0090: real time    0.0090
    EDDIAG:  cpu time    1.3726: real time    1.3729
  RMM-DIIS:  cpu time   22.4260: real time   22.4357
    ORTHCH:  cpu time    0.3402: real time    0.3402
       DOS:  cpu time    0.0016: real time    0.0016
    CHARGE:  cpu time    0.3356: real time    0.3356
    MIXING:  cpu time    0.0043: real time    0.0043
    --------------------------------------------
      LOOP:  cpu time   24.5882: real time   24.5999

 eigenvalue-minimisations  :  4048
 total energy-change (2. order) : 0.3165237E+01  (-0.6853737E+01)
 number of electron     451.9999957 magnetization 
 augmentation part       61.6572829 magnetization 

 Broyden mixing:
  rms(total) = 0.13046E+01    rms(broyden)= 0.13046E+01
  rms(prec ) = 0.17133E+01
  weight for this iteration     100.00

 eigenvalues of (default mixing * dielectric matrix)
  average eigenvalue GAMMA=   0.7407
  1.9449  0.6008  0.6008  0.3527  0.2041

 Free energy of the ion-electron system (eV)
  ---------------------------------------------------
  alpha Z        PSCENC =       718.62171596
  Ewald energy   TEWEN  =    109263.69850411
  -Hartree energ DENC   =   -135043.87747521
  -exchange      EXHF   =         0.00000000
  -V(xc)+E(xc)   XCENC  =     -2546.97094572
  PAW double counting   =     34436.71140731   -30389.15937804
  entropy T*S    EENTRO =        -0.00237532
  eigenvalues    EBANDS =     -5038.02616508
  atomic energy  EATOM  =     27908.51820818
  Solvation  Ediel_sol  =         0.00000000
  ---------------------------------------------------
  free energy    TOTEN  =      -690.48650381 eV

  energy without entropy =     -690.48412849  energy(sigma->0) =     -690.48590998


--------------------------------------------------------------------------------------------------------




----------------------------------------- Iteration    1(  11)  ---------------------------------------


    POTLOK:  cpu time    0.0967: real time    0.0967
    SETDIJ:  cpu time    0.0089: real time    0.0089
    EDDIAG:  cpu time    1.3643: real time    1.3650
  RMM-DIIS:  cpu time   23.9079: real time   23.9175
    ORTHCH:  cpu time    0.3396: real time    0.3396
       DOS:  cpu time    0.0016: real time    0.0016
    CHARGE:  cpu time    0.3401: real time    0.3401
    MIXING:  cpu time    0.0044: real time    0.0044
    --------------------------------------------
      LOOP:  cpu time   26.0658: real time   26.0777

 eigenvalue-minimisations  :  4341
 total energy-change (2. order) : 0.2228567E+01  (-0.3142299E+01)
 number of electron     451.9999958 magnetization 
 augmentation part       61.6666601 magnetization 

 Broyden mixing:
  rms(total) = 0.10548E+01    rms(broyden)= 0.10548E+01
  rms(prec ) = 0.13347E+01
  weight for this iteration     100.00

 eigenvalues of (default mixing * dielectric matrix)
  average eigenvalue GAMMA=   0.6987
  1.9594  0.8082  0.4700  0.4700  0.2041  0.2806

 Free energy of the ion-electron system (eV)
  ---------------------------------------------------
  alpha Z        PSCENC =       718.62171596
  Ewald energy   TEWEN  =    109263.69850411
  -Hartree energ DENC   =   -135098.77369856
  -exchange      EXHF   =         0.00000000
  -V(xc)+E(xc)   XCENC  =     -2544.59168897
  PAW double counting   =     35286.44095611   -31236.66462105
  entropy T*S    EENTRO =         0.00354461
  eigenvalues    EBANDS =     -4985.51085750
  atomic energy  EATOM  =     27908.51820818
  Solvation  Ediel_sol  =         0.00000000
  ---------------------------------------------------
  free energy    TOTEN  =      -688.25793710 eV

  energy without entropy =     -688.26148171  energy(sigma->0) =     -688.25882326


--------------------------------------------------------------------------------------------------------




----------------------------------------- Iteration    1(  12)  ---------------------------------------


    POTLOK:  cpu time    0.0967: real time    0.0967
    SETDIJ:  cpu time    0.0091: real time    0.0091
    EDDIAG:  cpu time    1.3917: real time    1.3923
  RMM-DIIS:  cpu time   21.0284: real time   21.0418
    ORTHCH:  cpu time    0.3402: real time    0.3402
       DOS:  cpu time    0.0017: real time    0.0017
[...]
 -----------------------------------------------------------------------------------------------
   -.465E+02 -.353E+02 0.463E+03   0.463E+02 0.350E+02 -.462E+03   0.122E+00 0.996E-01 -.849E+00   -.122E-02 -.985E-03 0.397E-03
   -.161E+02 -.177E+02 0.770E+01   0.159E+02 0.178E+02 -.876E+01   0.165E+00 -.148E+00 0.106E+01   0.634E-03 0.818E-03 -.244E-02
   0.696E+02 0.448E+02 -.214E+03   -.718E+02 -.422E+02 0.213E+03   0.227E+01 -.259E+01 0.118E+01   0.112E-02 0.600E-03 -.244E-02
   0.653E+01 0.463E+01 0.295E+03   -.641E+01 -.445E+01 -.295E+03   -.171E+00 -.252E+00 -.248E+00   -.787E-03 -.173E-02 -.871E-03
   -.145E+02 0.394E+00 0.464E+02   0.103E+02 0.174E+00 -.474E+02   0.423E+01 -.570E+00 0.105E+01   0.777E-04 -.241E-03 -.293E-02
   -.432E+02 0.496E+01 0.413E+03   0.425E+02 -.432E+01 -.411E+03   0.697E+00 -.102E+01 -.227E+01   0.850E-03 -.702E-03 -.407E-03
   -.341E+03 0.617E+01 0.930E+03   0.341E+03 -.557E+01 -.932E+03   0.253E+00 -.183E+00 0.107E+01   -.100E-02 0.704E-02 -.712E-02
   -.208E+03 -.697E+02 -.125E+04   0.206E+03 0.717E+02 0.125E+04   0.230E+01 -.200E+01 0.140E+01   -.208E-02 -.111E-03 -.101E-01
   0.906E+02 -.694E+01 0.198E+04   -.903E+02 0.586E+01 -.198E+04   -.589E+00 0.597E+00 -.438E+01   0.142E-02 0.395E-02 -.285E-02
   0.146E+03 -.121E+02 0.131E+03   -.147E+03 0.120E+02 -.130E+03   0.522E+00 0.170E+00 -.156E+01   0.116E-02 -.537E-02 -.140E-01
   -.507E+02 0.142E+03 0.205E+04   0.514E+02 -.142E+03 -.204E+04   -.513E+00 -.439E+00 -.272E+01   -.642E-03 0.385E-02 -.493E-02
   0.695E+02 0.345E+02 0.182E+03   -.693E+02 -.350E+02 -.182E+03   -.285E+00 0.466E+00 -.289E+00   0.101E-02 -.363E-02 -.154E-01
   -.379E+03 -.154E+02 0.121E+04   0.380E+03 0.144E+02 -.121E+04   -.507E+00 0.125E+01 -.117E+01   -.799E-02 -.650E-02 -.340E-02
   -.188E+03 0.190E+03 -.112E+04   0.190E+03 -.191E+03 0.112E+04   -.182E+01 0.146E+01 0.463E+00   0.280E-02 -.100E-02 -.699E-02
   0.277E+03 -.123E+03 0.190E+04   -.277E+03 0.123E+03 -.189E+04   0.283E+00 -.402E+00 -.424E+01   0.466E-02 0.373E-03 -.132E-02
   0.277E+03 -.745E+02 0.987E+02   -.278E+03 0.743E+02 -.984E+02   0.410E+00 0.197E+00 -.211E+00   -.165E-02 0.130E-02 -.746E-02
   -.153E+02 0.384E+01 0.368E+03   0.149E+02 -.371E+01 -.368E+03   0.687E+00 -.190E+00 0.221E+00   0.124E-02 0.270E-02 -.226E-02
   -.296E+02 -.450E+02 -.443E+03   0.290E+02 0.443E+02 0.442E+03   0.600E+00 0.764E+00 0.725E+00   0.269E-02 -.744E-03 -.327E-02
   0.154E+03 -.213E+02 0.376E+03   -.154E+03 0.213E+02 -.377E+03   -.145E+01 0.467E+00 0.680E+00   0.181E-02 0.964E-03 -.318E-02
   0.168E+03 0.449E+01 -.456E+03   -.167E+03 -.274E+01 0.453E+03   -.103E+01 -.174E+01 0.243E+01   -.104E-02 0.166E-02 -.358E-02
   0.509E+02 0.713E+00 0.127E+03   -.491E+02 -.148E+01 -.129E+03   -.179E+01 0.774E+00 0.138E+01   0.572E-03 -.157E-03 -.216E-02
   0.112E+03 -.564E+02 0.579E+03   -.110E+03 0.565E+02 -.576E+03   -.781E+00 -.231E+00 -.271E+01   0.196E-02 -.122E-02 0.319E-04
   -.964E+02 0.681E+02 0.809E+02   0.968E+02 -.673E+02 -.825E+02   -.355E+00 -.770E+00 0.163E+01   -.140E-02 0.110E-02 -.406E-02
   -.956E+02 0.599E+02 0.630E+03   0.949E+02 -.593E+02 -.626E+03   0.469E+00 -.523E+00 -.285E+01   -.205E-02 -.527E-03 -.586E-03
   0.659E+02 -.233E+02 0.311E+03   -.668E+02 0.227E+02 -.310E+03   0.949E+00 0.971E+00 -.743E+00   0.106E-02 0.323E-03 -.211E-02
   0.337E+02 -.140E+02 -.382E+03   -.343E+02 0.141E+02 0.382E+03   0.605E+00 -.703E-01 0.331E+00   -.138E-04 0.138E-02 -.263E-02
   -.146E+03 0.288E+01 -.318E+03   0.146E+03 -.421E+01 0.317E+03   -.337E+00 0.133E+01 0.132E+01   -.115E-02 -.178E-03 -.245E-02
   -.146E+03 0.804E+01 0.343E+03   0.146E+03 -.795E+01 -.344E+03   0.812E-01 -.312E+00 -.107E-02   -.296E-03 -.394E-03 -.122E-02
   -.143E+03 -.440E+01 0.596E+03   0.142E+03 0.435E+01 -.593E+03   0.791E+00 -.199E-01 -.261E+01   -.831E-03 0.155E-02 0.238E-03
   -.160E+03 -.283E+02 0.479E+02   0.158E+03 0.285E+02 -.492E+02   0.112E+01 -.180E+00 0.137E+01   -.141E-02 -.746E-03 -.317E-02
   0.805E+02 0.107E+02 0.313E+03   -.807E+02 -.103E+02 -.313E+03   0.221E-01 -.122E+00 -.121E+00   0.844E-03 0.925E-04 -.225E-02
   0.997E+02 0.245E+02 -.366E+03   -.987E+02 -.238E+02 0.365E+03   -.921E+00 -.681E+00 0.829E+00   0.267E-02 -.154E-02 -.388E-02
   0.581E+02 0.141E+02 0.473E+02   -.584E+02 -.138E+02 -.475E+02   0.290E+00 -.330E+00 0.266E+00   0.118E-02 0.162E-02 -.357E-02
   0.325E+02 -.164E+01 0.606E+03   -.332E+02 0.160E+01 -.603E+03   0.652E+00 0.692E-02 -.244E+01   -.479E-03 -.129E-02 -.586E-03
   0.113E+03 0.167E+02 0.316E+03   -.112E+03 -.169E+02 -.316E+03   -.783E+00 0.629E+00 -.377E+00   0.134E-02 0.204E-02 -.187E-02
   0.894E+02 0.118E+02 -.399E+03   -.878E+02 -.103E+02 0.397E+03   -.153E+01 -.147E+01 0.141E+01   -.810E-04 0.963E-03 -.289E-02
   0.105E+03 0.237E+02 0.346E+03   -.105E+03 -.234E+02 -.346E+03   0.186E+00 -.432E+00 -.836E+00   0.150E-04 -.292E-03 -.173E-02
   0.802E+02 -.515E+02 -.400E+03   -.820E+02 0.515E+02 0.399E+03   0.178E+01 0.150E-01 0.106E+01   -.119E-02 -.110E-02 -.256E-02
   0.120E+03 0.400E+02 0.551E+03   -.120E+03 -.397E+02 -.548E+03   0.193E+00 -.517E+00 -.280E+01   0.809E-03 0.112E-02 -.110E-02
   0.123E+03 0.308E+02 0.668E+02   -.123E+03 -.301E+02 -.673E+02   -.188E+00 -.743E+00 0.482E+00   0.221E-03 0.489E-03 -.376E-02
   -.928E+02 -.227E+01 0.601E+03   0.930E+02 0.227E+01 -.597E+03   -.436E+00 0.429E-02 -.294E+01   -.275E-03 -.160E-02 0.276E-04
   -.886E+02 -.272E+00 0.610E+02   0.880E+02 0.626E+00 -.608E+02   0.593E+00 -.355E+00 -.134E+00   -.304E-03 0.889E-03 -.272E-02
   0.124E+03 0.308E+02 0.567E+03   -.123E+03 -.311E+02 -.564E+03   -.275E+00 0.386E+00 -.255E+01   0.939E-03 -.901E-04 -.171E-02
   0.872E+02 -.860E+01 0.668E+02   -.863E+02 0.921E+01 -.680E+02   -.861E+00 -.604E+00 0.119E+01   0.142E-02 -.690E-03 -.522E-02
   0.297E+02 -.402E+01 -.389E+03   -.291E+02 0.206E+01 0.387E+03   -.504E+00 0.197E+01 0.174E+01   -.129E-03 -.948E-03 -.272E-02
   0.109E+03 -.101E+02 0.346E+03   -.109E+03 0.978E+01 -.346E+03   0.516E+00 0.389E+00 -.185E+00   0.764E-03 -.193E-02 -.207E-02
   0.384E+02 0.341E+01 0.361E+03   -.383E+02 -.350E+01 -.362E+03   -.766E-02 0.837E-01 0.695E+00   -.934E-03 0.519E-03 -.185E-02
   -.143E+02 0.261E+02 -.371E+03   0.137E+02 -.266E+02 0.370E+03   0.600E+00 0.501E+00 0.168E+01   -.538E-03 0.118E-02 -.211E-02
   -.365E+02 -.749E-01 0.560E+03   0.368E+02 0.419E+00 -.556E+03   -.143E+00 -.299E+00 -.295E+01   -.198E-03 0.106E-02 0.243E-03
   -.636E+02 0.296E+02 0.102E+03   0.635E+02 -.297E+02 -.103E+03   0.501E-01 0.840E-01 0.171E+00   0.475E-03 0.375E-04 -.251E-02
   0.508E+02 -.599E+01 0.542E+03   -.507E+02 0.527E+01 -.539E+03   -.307E-01 0.181E+00 -.317E+01   -.692E-04 -.603E-03 -.887E-04
   0.102E+02 0.447E+02 0.312E+02   -.921E+01 -.450E+02 -.309E+02   -.946E+00 0.319E+00 -.289E+00   -.193E-03 0.425E-03 -.233E-02
   -.611E+02 0.337E+01 0.344E+03   0.613E+02 -.315E+01 -.344E+03   -.123E+00 0.499E+00 -.112E-03   0.332E-03 0.964E-03 -.120E-02
   -.382E+02 -.739E+02 -.424E+03   0.397E+02 0.732E+02 0.421E+03   -.158E+01 0.611E+00 0.268E+01   -.201E-03 -.142E-03 -.181E-02
   0.380E+02 0.352E+01 0.553E+03   -.373E+02 -.342E+01 -.549E+03   -.844E+00 -.303E+00 -.333E+01   0.818E-04 0.234E-03 -.259E-03
   0.598E+02 -.843E+02 0.618E+02   -.599E+02 0.851E+02 -.618E+02   0.752E-01 -.848E+00 -.592E-01   -.463E-03 -.523E-03 -.373E-02
   -.816E+02 -.677E+01 0.316E+03   0.813E+02 0.653E+01 -.316E+03   0.356E+00 -.127E+00 -.110E+01   0.156E-03 -.128E-02 -.217E-02
   -.116E+03 0.966E+01 -.468E+03   0.114E+03 -.103E+02 0.467E+03   0.232E+01 0.595E+00 0.165E+01   0.803E-04 -.487E-03 -.151E-02
   0.481E+02 0.516E+02 -.358E+03   -.475E+02 -.515E+02 0.359E+03   -.576E+00 -.140E+00 -.631E+00   -.645E-04 -.913E-03 -.239E-02
   0.434E+02 -.713E+01 0.337E+03   -.428E+02 0.699E+01 -.338E+03   -.616E+00 0.376E+00 -.159E+00   0.177E-03 -.579E-03 -.171E-02
   -.137E+03 -.429E+02 0.627E+03   0.136E+03 0.422E+02 -.624E+03   0.862E+00 0.535E-01 -.328E+01   -.127E-02 0.730E-03 0.574E-03
   -.122E+03 -.414E+02 0.431E+02   0.122E+03 0.410E+02 -.427E+02   0.179E+00 0.378E+00 -.366E+00   -.127E-02 -.879E-03 -.253E-02
   -.136E+03 0.489E+01 0.337E+03   0.135E+03 -.511E+01 -.337E+03   0.411E+00 0.542E+00 -.171E+00   -.923E-03 0.618E-03 -.159E-02
   -.105E+03 -.194E+02 -.357E+03   0.103E+03 0.199E+02 0.356E+03   0.160E+01 -.522E+00 0.671E+00   -.703E-03 0.389E-03 -.169E-02
   0.990E+02 0.283E+02 -.651E+03   -.100E+03 -.296E+02 0.657E+03   0.957E+00 0.131E+01 -.551E+01   -.473E-03 -.517E-02 -.487E-02
   -.947E+02 0.437E+02 -.931E+03   0.945E+02 -.487E+02 0.947E+03   0.185E+00 0.491E+01 -.164E+02   -.294E-03 0.172E-02 -.136E-02
   0.160E+03 0.562E+01 -.622E+03   -.160E+03 -.649E+01 0.627E+03   -.111E+00 0.860E+00 -.518E+01   -.426E-02 0.504E-02 -.345E-02
   -.938E+02 0.123E+02 -.810E+03   0.940E+02 -.114E+02 0.823E+03   -.194E+00 -.852E+00 -.123E+02   0.274E-02 -.177E-02 -.112E-02
   0.833E+02 0.857E+01 -.892E+03   -.827E+02 -.540E+01 0.911E+03   -.585E+00 -.317E+01 -.194E+02   -.355E-03 -.124E-02 -.312E-02
   0.103E+03 -.102E+02 -.961E+03   -.102E+03 0.101E+02 0.981E+03   -.881E+00 0.361E-01 -.202E+02   -.494E-02 0.370E-02 0.125E-02
   -.117E+03 -.150E+03 -.102E+04   0.119E+03 0.151E+03 0.104E+04   -.225E+01 -.750E+00 -.210E+02   -.338E-03 -.288E-02 -.287E-02
   0.791E+02 -.374E+01 -.101E+04   -.809E+02 0.479E+01 0.103E+04   0.176E+01 -.105E+01 -.223E+02   0.520E-02 0.479E-03 0.290E-02
   0.266E+02 -.371E+02 -.955E+03   -.240E+02 0.329E+02 0.975E+03   -.258E+01 0.412E+01 -.192E+02   -.146E-02 -.296E-02 0.503E-03
   0.863E+02 0.315E+02 -.963E+03   -.889E+02 -.282E+02 0.982E+03   0.261E+01 -.334E+01 -.188E+02   0.660E-02 0.175E-03 -.244E-03
   0.932E+02 -.254E+02 -.902E+03   -.941E+02 0.267E+02 0.923E+03   0.851E+00 -.135E+01 -.209E+02   0.204E-03 0.400E-02 -.311E-03
   -.172E+03 -.154E+02 -.107E+04   0.169E+03 0.202E+02 0.109E+04   0.345E+01 -.478E+01 -.197E+02   -.200E-02 -.370E-02 -.715E-03
   -.310E+03 -.683E+02 -.623E+03   0.313E+03 0.728E+02 0.629E+03   -.248E+01 -.450E+01 -.656E+01   -.455E-02 0.183E-02 -.237E-02
   0.159E+03 0.622E+02 -.106E+04   -.161E+03 -.650E+02 0.108E+04   0.176E+01 0.279E+01 -.242E+02   0.616E-02 -.136E-02 -.178E-02
   -.397E+02 0.717E+02 -.494E+03   0.420E+02 -.742E+02 0.500E+03   -.237E+01 0.253E+01 -.601E+01   -.308E-02 0.187E-02 -.419E-02
   0.746E+02 -.283E+02 -.211E+03   -.739E+02 0.290E+02 0.210E+03   -.741E+00 -.698E+00 0.136E+01   -.148E-03 -.195E-02 -.638E-02
   -.826E+02 0.200E+02 -.180E+03   0.803E+02 -.196E+02 0.180E+03   0.233E+01 -.458E+00 -.242E+00   -.333E-03 0.116E-02 -.373E-02
   0.867E+02 0.145E+02 0.794E+02   -.864E+02 -.137E+02 -.793E+02   -.212E+00 -.776E+00 -.122E+00   -.151E-02 0.129E-02 -.418E-02
 -----------------------------------------------------------------------------------------------
   -.875E+01 0.814E+01 0.261E+03   0.639E-12 0.188E-12 0.739E-11   0.875E+01 -.814E+01 -.261E+03   -.109E-02 0.210E-02 -.216E+00
 
 
 POSITION                                       TOTAL-FORCE (eV/Angst)
 -----------------------------------------------------------------------------------
      8.57631      8.29685     10.39845        -0.081442     -0.157989      0.020630
      8.54596      3.79338     15.13984         0.006919     -0.010934      0.002454
      8.16158      6.01624     17.25607         0.007244     -0.004436      0.006617
      8.51616      0.79995     12.43874        -0.052517     -0.072838      0.030190
     13.38993      6.07422     15.10749        -0.003606     -0.002204      0.007940
     13.49094      1.15316     10.44749        -0.008278     -0.383724     -0.046206
     10.03344      3.28428     12.67411         0.059999      0.420754     -0.399712
     10.03423      8.12280     17.49548         0.003616      0.004410      0.004653
      7.12524      5.81577     10.15765        -0.218874     -0.480777      0.884778
      7.04619      1.29258     15.09173         0.001365     -0.000010     -0.000243
      8.51222      3.28036     10.20450         0.247004      0.060584      0.814634
      8.57721      8.33460     14.94874         0.002233     -0.001237      0.002006
     10.22263      8.06723     12.77991         0.368732      0.215573     -0.036854
     10.25976      3.77348     17.55408         0.001391      0.003934      0.007415
      5.42664      8.10481     10.20639         0.291257      0.073737      0.872232
      5.35625      3.57718     15.14082         0.001335     -0.000222      0.002555
      8.52843      5.75423     12.65640         0.330292     -0.061222      0.054632
      8.70881      1.16481     17.45718         0.003766      0.022178      0.016090
      3.84829      7.97317     12.47259        -0.537099      0.438307     -0.391924
      3.75284      3.33765     17.43260        -0.002515      0.014049      0.003519
      3.78370      5.64869     14.78378         0.007283      0.003625      0.000382
      3.90063      0.73891     10.00000         0.505170     -0.159656      0.364204
     10.21852      6.08093     15.15094         0.001557      0.000485      0.001699
     10.19112      1.10470     10.13736        -0.202980      0.024470      0.287886
      6.82945      7.99424     12.66670         0.022165      0.306439     -0.400033
      6.89150      3.50058     17.59625         0.001496      0.004615     -0.001438
     12.00898      6.19614     17.46223         0.006995     -0.001112      0.005491
     11.66772      1.05372     12.57547        -0.367232     -0.218614     -0.775216
     11.73919      3.33868     10.41199        -0.227017     -0.077203      0.572279
     11.95116      8.36382     15.42897         0.002208      0.002023      0.004521
      7.18522      3.24644     12.75390        -0.164421      0.284679     -0.305736
      7.25865      8.48977     17.39452        -0.000771     -0.005752     -0.001052
      6.87073      6.05703     14.84045        -0.002008      0.001519      0.003015
      6.87795      0.97560     10.08695        -0.022342     -0.029787      0.235627
      5.51084      5.55012     12.48419        -0.121359      0.410351     -0.397494
      5.53919      0.96975     17.55233         0.007068     -0.000567      0.003843
      3.51249      3.50019     12.83519         0.105503     -0.172735     -0.355527
      3.22287      8.72349     17.59362         0.009682      0.004631      0.003669
      3.46798      5.87237     10.40868         0.050721     -0.256550     -0.096728
      3.55075      1.28927     15.15362         0.003611     -0.001697     -0.000972
     11.91771      8.21633     10.24534        -0.270952      0.007528      0.800543
     11.95129      3.57729     15.19552        -0.000900     -0.000215      0.004661
      5.24135      3.36543     10.32679         0.132291      0.069339      0.123240
      5.15423      8.31209     15.14409         0.001027      0.002022      0.002850
      5.24862      6.17653     17.44995         0.004603      0.000905      0.002899
      5.28930      0.99064     12.60849         0.297228      0.082195     -0.370352
      1.60538      5.84491     12.85122         0.081136     -0.004120     -0.507602
      1.38517      1.46569     17.52664        -0.001331      0.002266     -0.001828
     13.72038      5.67134     10.18293         0.172289      0.045594      0.529997
     13.66875      0.97869     14.84720        -0.000006      0.002309      0.000040
      1.63456      8.33987     10.36453         0.061519     -0.538064      0.109873
      1.58208      3.65674     15.30116         0.004177     -0.001473      0.002543
     13.76831      3.16119     12.53308         0.029573      0.721602     -0.481787
      0.40538      8.20305     17.89086         0.001981     -0.000945      0.005593
      1.99440      3.17314     10.17666        -0.183529     -0.205996      0.589929
      1.84274      8.14026     15.16631        -0.000686     -0.002917      0.002646
     13.48051      8.37930     12.86886         0.045896     -0.359071     -1.019410
     13.34030      3.88413     18.06172         0.002257     -0.000387      0.000548
      2.01612      5.87778     17.41405        -0.001461     -0.002584      0.003189
      2.02729      0.87737     12.46815        -0.011331      0.230574     -0.356304
     10.07171      5.79402     10.14663         0.145267     -0.572521      0.202346
     10.11938      1.20936     14.92675         0.002514     -0.000037     -0.001578
     11.97051      5.66181     12.67660        -0.605818      0.323360     -0.679158
     11.87547      1.15143     17.57371         0.004557      0.002969      0.002578
      5.25251      8.42465     17.52884         0.002352      0.000699      0.003539
     13.52556      1.92733     18.79945         0.002357      0.001773      0.001548
      3.50280      1.17875     17.58588         0.002617     -0.002134     -0.001873
      0.08440      6.01786     18.36181         0.004373      0.010652      0.002844
      3.73333      5.08423     18.41381        -0.001504     -0.000630     -0.001197
      5.39540      2.74019     18.49482         0.000374     -0.000039      0.008420
     10.21718      0.29824     18.55109         0.003955      0.003191     -0.000836
      7.13042      0.54760     18.57641         0.002108      0.000238     -0.003419
      2.26684      7.59156     18.77935         0.004765     -0.003641      0.000855
      8.61466      3.01214     18.40245         0.002244     -0.003009      0.001556
      6.90939      5.25708     18.36661         0.004248     -0.002629      0.003524
     11.55688      4.71146     18.76549         0.005183      0.003006      0.001648
     12.08685      8.30875     17.61734        -0.001212      0.002918      0.005859
      8.39814      7.45007     18.47640         0.006389     -0.002552      0.004256
      9.99709      5.97260     17.30706         0.005172     -0.000396      0.001043
      3.55588      7.07008     16.29452         0.002344     -0.002151      0.000214
     13.66043      2.57744     16.30740         0.003974      0.000207      0.001381
      1.66135      5.87981     15.14823         0.003809     -0.004931      0.001353
 -----------------------------------------------------------------------------------
    total drift:                               -0.002312      0.001729      0.000499


--------------------------------------------------------------------------------------------------------



  FREE ENERGIE OF THE ION-ELECTRON SYSTEM (eV)
  ---------------------------------------------------
  free  energy   TOTEN  =      -684.99002938 eV

  energy  without entropy=     -684.97819835  energy(sigma->0) =     -684.98707162
 


--------------------------------------------------------------------------------------------------------


    POTLOK:  cpu time    0.1133: real time    0.1143


--------------------------------------------------------------------------------------------------------


     LOOP+:  cpu time  860.9927: real time  861.5707
    4ORBIT:  cpu time    0.0000: real time    0.0000

 total amount of memory used by VASP on root node   136846. kBytes
========================================================================

   base      :      30000. kBytes
   nonl-proj :      28576. kBytes
   fftplans  :       6516. kBytes
   grid      :      15878. kBytes
   one-center:         62. kBytes
   wavefun   :      55814. kBytes
 
  
  
 General timing and accounting informations for this job:
 ========================================================
  
                  Total CPU time used (sec):      879.433
                            User time (sec):      875.699
                          System time (sec):        3.734
                         Elapsed time (sec):      880.250
  
                   Maximum memory used (kb):      172024.
                   Average memory used (kb):           0.
  
                          Minor page faults:        52305
                          Major page faults:            0
                 Voluntary context switches:         2503
