 vasp.5.4.1 05Feb16 (build Mar 19 2020 08:54:17) complex                        
  
 executed on           IFC91_ompi date 2021.10.24  12:57:22
 running on   96 total cores
 distrk:  each k-point on   96 cores,    1 groups
 distr:  one band on NCORES_PER_BAND=  48 cores,    2 groups


--------------------------------------------------------------------------------------------------------


 INCAR:
 POTCAR:    PAW_PBE Al 04Jan2001                  
 POTCAR:    PAW_PBE Nb_sv 25May2007               
 POTCAR:    PAW_PBE Ta 17Jan2003                  
 POTCAR:    PAW_PBE Ti 08Apr2002                  
 POTCAR:   PAW_PBE Zr 08Apr2002                   
 POTCAR:    PAW_PBE O 08Apr2002                   

 ----------------------------------------------------------------------------- 
|                                                                             |
|           W    W    AA    RRRRR   N    N  II  N    N   GGGG   !!!           |
|           W    W   A  A   R    R  NN   N  II  NN   N  G    G  !!!           |
|           W    W  A    A  R    R  N N  N  II  N N  N  G       !!!           |
|           W WW W  AAAAAA  RRRRR   N  N N  II  N  N N  G  GGG   !            |
|           WW  WW  A    A  R   R   N   NN  II  N   NN  G    G                |
|           W    W  A    A  R    R  N    N  II  N    N   GGGG   !!!           |
|                                                                             |
|      For optimal performance we recommend to set                            |
|        NCORE= 4 - approx SQRT( number of cores)                             |
|      NCORE specifies how many cores store one orbital (NPAR=cpu/NCORE).     |
|      This setting can  greatly improve the performance of VASP for DFT.     |
|      The default, NPAR=number of cores might be grossly inefficient         |
|      on modern multi-core architectures or massively parallel machines.     |
|      Do your own testing !!!!                                               |
|      Unfortunately you need to use the default for GW and RPA calculations. |
|      (for HF NCORE is supported but not extensively tested yet)             |
|                                                                             |
 ----------------------------------------------------------------------------- 

 POTCAR:    PAW_PBE Al 04Jan2001                  
   VRHFIN =Al: s2p1                                                             
   LEXCH  = PE                                                                  
   EATOM  =    53.5387 eV,    3.9350 Ry                                         
                                                                                
   TITEL  = PAW_PBE Al 04Jan2001                                                
   LULTRA =        F    use ultrasoft PP ?                                      
   IUNSCR =        1    unscreen: 0-lin 1-nonlin 2-no                           
   RPACOR =    1.500    partial core radius                                     
   POMASS =   26.981; ZVAL   =    3.000    mass and valenz                      
   RCORE  =    1.900    outmost cutoff radius                                   
   RWIGS  =    2.650; RWIGS  =    1.402    wigner-seitz radius (au A)           
   ENMAX  =  240.300; ENMIN  =  180.225 eV                                      
   ICORE  =        2    local potential                                         
   LCOR   =        T    correct aug charges                                     
   LPAW   =        T    paw PP                                                  
   EAUG   =  291.052                                                            
   DEXC   =    0.000                                                            
   RMAX   =    1.939    core radius for proj-oper                               
   RAUG   =    1.300    factor for augmentation sphere                          
   RDEP   =    1.966    radius for radial grids                                 
   RDEPT  =    1.856    core radius for aug-charge                              
                                                                                
   Atomic configuration                                                         
    6 entries                                                                   
     n  l   j            E        occ.                                          
     1  0  0.50     -1511.1048   2.0000                                         
     2  0  0.50      -108.1629   2.0000                                         
     2  1  1.50       -69.6402   6.0000                                         
     3  0  0.50        -7.7528   2.0000                                         
     3  1  1.50        -2.7121   1.0000                                         
     3  2  2.50        -2.7212   0.0000                                         
   Description                                                                  
     l       E           TYP  RCUT    TYP  RCUT                                 
     0     -7.7528455     23  1.900                                             
     0     -3.3096929     23  1.900                                             
     1     -2.7120682     23  1.900                                             
     1     13.6058260     23  1.900                                             
     2     -2.7211652      7  1.900                                             
  local pseudopotential read in
  partial core-charges read in
  partial kinetic energy density read in
  atomic valenz-charges read in
  non local Contribution for L=           0  read in
    real space projection operators read in
  non local Contribution for L=           0  read in
    real space projection operators read in
  non local Contribution for L=           1  read in
    real space projection operators read in
  non local Contribution for L=           1  read in
    real space projection operators read in
    PAW grid and wavefunctions read in
 
   number of l-projection  operators is LMAX  =           4
   number of lm-projection operators is LMMAX =           8
 
 POTCAR:    PAW_PBE Nb_sv 25May2007               
   VRHFIN =Nb: 4p5s4d                                                           
   LEXCH  = PE                                                                  
   EATOM  =  1555.1913 eV,  114.3033 Ry                                         
                                                                                
   TITEL  = PAW_PBE Nb_sv 25May2007                                             
   LULTRA =        F    use ultrasoft PP ?                                      
   IUNSCR =        1    unscreen: 0-lin 1-nonlin 2-no                           
   RPACOR =    1.800    partial core radius                                     
   POMASS =   92.910; ZVAL   =   13.000    mass and valenz                      
   RCORE  =    2.400    outmost cutoff radius                                   
   RWIGS  =    2.400; RWIGS  =    1.270    wigner-seitz radius (au A)           
   ENMAX  =  293.235; ENMIN  =  219.927 eV                                      
   ICORE  =        3    local potential                                         
   LCOR   =        T    correct aug charges                                     
   LPAW   =        T    paw PP                                                  
   EAUG   =  455.659                                                            
   DEXC   =    0.000                                                            
   RMAX   =    2.456    core radius for proj-oper                               
   RAUG   =    1.300    factor for augmentation sphere                          
   RDEP   =    2.451    radius for radial grids                                 
   RDEPT  =    1.956    core radius for aug-charge                              
                                                                                
   Atomic configuration                                                         
   11 entries                                                                   
     n  l   j            E        occ.                                          
     1  0  0.50    -18805.2457   2.0000                                         
     2  0  0.50     -2630.2869   2.0000                                         
     2  1  1.50     -2348.4046   6.0000                                         
     3  0  0.50      -438.8757   2.0000                                         
     3  1  1.50      -346.7588   6.0000                                         
     3  2  2.50      -196.2560  10.0000                                         
     4  0  0.50       -58.3859   2.0000                                         
     5  0  0.50        -3.9816   1.0000                                         
     4  1  1.50       -34.5141   6.0000                                         
     4  2  2.50        -3.0408   4.0000                                         
     4  3  2.50        -1.3606   0.0000                                         
   Description                                                                  
     l       E           TYP  RCUT    TYP  RCUT                                 
     0    -58.3859094     23  2.200                                             
     0     -3.9816262     23  2.200                                             
     1    -34.5140738     23  2.200                                             
     1     13.6058260     23  2.200                                             
     2     -3.0408010     23  2.200                                             
     2     -0.1283038     23  2.200                                             
     3     -1.3605826     23  2.400                                             
  local pseudopotential read in
  partial core-charges read in
  partial kinetic energy density read in
  atomic valenz-charges read in
  non local Contribution for L=           0  read in
    real space projection operators read in
  non local Contribution for L=           0  read in
    real space projection operators read in
  non local Contribution for L=           1  read in
    real space projection operators read in
  non local Contribution for L=           1  read in
    real space projection operators read in
  non local Contribution for L=           2  read in
    real space projection operators read in
  non local Contribution for L=           2  read in
    real space projection operators read in
    PAW grid and wavefunctions read in
 
   number of l-projection  operators is LMAX  =           6
   number of lm-projection operators is LMMAX =          18
 
 POTCAR:    PAW_PBE Ta 17Jan2003                  
   VRHFIN =Ta:  6s5d                                                            
   LEXCH  = PE                                                                  
   EATOM  =   130.6506 eV,    9.6025 Ry                                         
                                                                                
   TITEL  = PAW_PBE Ta 17Jan2003                                                
   LULTRA =        F    use ultrasoft PP ?                                      
   IUNSCR =        1    unscreen: 0-lin 1-nonlin 2-no                           
   RPACOR =    2.330    partial core radius                                     
   POMASS =  180.948; ZVAL   =    5.000    mass and valenz                      
   RCORE  =    2.900    outmost cutoff radius                                   
   RWIGS  =    2.840; RWIGS  =    1.503    wigner-seitz radius (au A)           
   ENMAX  =  223.667; ENMIN  =  167.750 eV                                      
   RCLOC  =    2.205    cutoff for local pot                                    
   LCOR   =        T    correct aug charges                                     
   LPAW   =        T    paw PP                                                  
   EAUG   =  332.075                                                            
   DEXC   =    0.000                                                            
   RMAX   =    2.970    core radius for proj-oper                               
   RAUG   =    1.300    factor for augmentation sphere                          
   RDEP   =    3.060    radius for radial grids                                 
   RDEPT  =    2.354    core radius for aug-charge                              
                                                                                
   Atomic configuration                                                         
   16 entries                                                                   
     n  l   j            E        occ.                                          
     1  0  0.50    -67341.2807   2.0000                                         
     2  0  0.50    -11566.9376   2.0000                                         
     2  1  1.50    -10134.1182   6.0000                                         
     3  0  0.50     -2648.5620   2.0000                                         
     3  1  1.50     -2222.6012   6.0000                                         
     3  2  2.50     -1726.3120  10.0000                                         
     4  0  0.50      -538.6961   2.0000                                         
     4  1  1.50      -399.0129   6.0000                                         
     4  2  2.50      -220.3959  10.0000                                         
     4  3  3.50       -23.0374  14.0000                                         
     5  0  0.50       -71.2901   2.0000                                         
     5  1  1.50       -37.8225   6.0000                                         
     5  2  2.50        -2.6455   4.0000                                         
     6  0  0.50        -4.9623   1.0000                                         
     6  1  1.50        -1.3606   0.0000                                         
     5  3  2.50        -1.3606   0.0000                                         
   Description                                                                  
     l       E           TYP  RCUT    TYP  RCUT                                 
     2     -2.6455043     23  2.500                                             
     2     -0.6258895     23  2.500                                             
     0     -4.9622780     23  2.500                                             
     0      4.7531321     23  2.500                                             
     1     -1.3605826     23  2.900                                             
     1     27.2116520     23  2.900                                             
  local pseudopotential read in
  partial core-charges read in
  partial kinetic energy density read in
  atomic valenz-charges read in
  non local Contribution for L=           2  read in
    real space projection operators read in
  non local Contribution for L=           2  read in
    real space projection operators read in
  non local Contribution for L=           0  read in
    real space projection operators read in
  non local Contribution for L=           0  read in
    real space projection operators read in
  non local Contribution for L=           1  read in
    real space projection operators read in
  non local Contribution for L=           1  read in
    real space projection operators read in
    PAW grid and wavefunctions read in
 
   number of l-projection  operators is LMAX  =           6
   number of lm-projection operators is LMMAX =          18
 
 POTCAR:    PAW_PBE Ti 08Apr2002                  
   VRHFIN =Ti: d3 s1                                                            
   LEXCH  = PE                                                                  
   EATOM  =    94.7928 eV,    6.9671 Ry                                         
                                                                                
   TITEL  = PAW_PBE Ti 08Apr2002                                                
   LULTRA =        F    use ultrasoft PP ?                                      
   IUNSCR =        1    unscreen: 0-lin 1-nonlin 2-no                           
   RPACOR =    2.200    partial core radius                                     
   POMASS =   47.880; ZVAL   =    4.000    mass and valenz                      
   RCORE  =    2.800    outmost cutoff radius                                   
   RWIGS  =    2.500; RWIGS  =    1.323    wigner-seitz radius (au A)           
   ENMAX  =  178.330; ENMIN  =  133.747 eV                                      
   RCLOC  =    2.215    cutoff for local pot                                    
   LCOR   =        T    correct aug charges                                     
   LPAW   =        T    paw PP                                                  
   EAUG   =  328.883                                                            
   DEXC   =    0.000                                                            
   RMAX   =    2.868    core radius for proj-oper                               
   RAUG   =    1.300    factor for augmentation sphere                          
   RDEP   =    2.885    radius for radial grids                                 
   RDEPT  =    2.320    core radius for aug-charge                              
                                                                                
   Atomic configuration                                                         
    9 entries                                                                   
     n  l   j            E        occ.                                          
     1  0  0.50     -4865.3608   2.0000                                         
     2  0  0.50      -533.1367   2.0000                                         
     2  1  1.50      -440.5031   6.0000                                         
     3  0  0.50       -59.3186   2.0000                                         
     3  1  1.50       -35.7012   6.0000                                         
     3  2  2.50        -1.9157   3.0000                                         
     4  0  0.50        -3.7291   1.0000                                         
     4  1  1.50        -4.0817   0.0000                                         
     4  3  2.50        -1.3606   0.0000                                         
   Description                                                                  
     l       E           TYP  RCUT    TYP  RCUT                                 
     2     -1.9156924     23  2.800                                             
     2     -0.4062961     23  2.800                                             
     0     -3.7290832     23  2.800                                             
     0     20.4087390     23  2.800                                             
     1     -5.4423304     23  2.800                                             
  local pseudopotential read in
  partial core-charges read in
  partial kinetic energy density read in
  atomic valenz-charges read in
  non local Contribution for L=           2  read in
    real space projection operators read in
  non local Contribution for L=           2  read in
    real space projection operators read in
  non local Contribution for L=           0  read in
    real space projection operators read in
  non local Contribution for L=           0  read in
    real space projection operators read in
  non local Contribution for L=           1  read in
    real space projection operators read in
    PAW grid and wavefunctions read in
 
   number of l-projection  operators is LMAX  =           5
   number of lm-projection operators is LMMAX =          15
 
 POTCAR:   PAW_PBE Zr 08Apr2002                   
   VRHFIN =Zr: 5s4d5p                                                           
   LEXCH  = PE                                                                  
   EATOM  =    77.8472 eV,    5.7216 Ry                                         
                                                                                
   TITEL  = PAW_PBE Zr 08Apr2002                                                
   LULTRA =        F    use ultrasoft PP ?                                      
   IUNSCR =        1    unscreen: 0-lin 1-nonlin 2-no                           
   RPACOR =    2.200    partial core radius                                     
   POMASS =   91.224; ZVAL   =    4.000    mass and valenz                      
   RCORE  =    3.000    outmost cutoff radius                                   
   RWIGS  =    3.070; RWIGS  =    1.625    wigner-seitz radius (au A)           
   ENMAX  =  154.632; ENMIN  =  115.974 eV                                      
   RCLOC  =    2.213    cutoff for local pot                                    
   LCOR   =        T    correct aug charges                                     
   LPAW   =        T    paw PP                                                  
   EAUG   =  243.217                                                            
   DEXC   =    -.082                                                            
   RMAX   =    3.708    core radius for proj-oper                               
   RAUG   =    1.300    factor for augmentation sphere                          
   RDEP   =    3.146    radius for radial grids                                 
   QCUT   =   -3.371; QGAM   =    6.742    optimization parameters              
                                                                                
   Description                                                                  
     l     E      TYP  RCUT    TYP  RCUT                                        
     2   .000     23  3.000                                                     
     2   .000     23  3.000                                                     
     0   .000     23  3.000                                                     
     0  2.000     23  3.000                                                     
     1  -.400     23  3.000                                                     
     3   .000      7   .000                                                     
  local pseudopotential read in
  partial core-charges read in
  atomic valenz-charges read in
  non local Contribution for L=           2  read in
    real space projection operators read in
  non local Contribution for L=           2  read in
    real space projection operators read in
  non local Contribution for L=           0  read in
    real space projection operators read in
  non local Contribution for L=           0  read in
    real space projection operators read in
  non local Contribution for L=           1  read in
    real space projection operators read in
    PAW grid and wavefunctions read in
 
   number of l-projection  operators is LMAX  =           5
   number of lm-projection operators is LMMAX =          15
 
 POTCAR:    PAW_PBE O 08Apr2002                   
   VRHFIN =O: s2p4                                                              
   LEXCH  = PE                                                                  
   EATOM  =   432.3788 eV,   31.7789 Ry                                         
                                                                                
   TITEL  = PAW_PBE O 08Apr2002                                                 
   LULTRA =        F    use ultrasoft PP ?                                      
   IUNSCR =        1    unscreen: 0-lin 1-nonlin 2-no                           
   RPACOR =    1.200    partial core radius                                     
   POMASS =   16.000; ZVAL   =    6.000    mass and valenz                      
   RCORE  =    1.520    outmost cutoff radius                                   
   RWIGS  =    1.550; RWIGS  =    0.820    wigner-seitz radius (au A)           
   ENMAX  =  400.000; ENMIN  =  300.000 eV                                      
   ICORE  =        2    local potential                                         
   LCOR   =        T    correct aug charges                                     
   LPAW   =        T    paw PP                                                  
   EAUG   =  605.392                                                            
   DEXC   =    0.000                                                            
   RMAX   =    1.553    core radius for proj-oper                               
   RAUG   =    1.300    factor for augmentation sphere                          
   RDEP   =    1.550    radius for radial grids                                 
   RDEPT  =    1.329    core radius for aug-charge                              
                                                                                
   Atomic configuration                                                         
    4 entries                                                                   
     n  l   j            E        occ.                                          
     1  0  0.50      -514.6923   2.0000                                         
     2  0  0.50       -23.9615   2.0000                                         
     2  1  0.50        -9.0305   4.0000                                         
     3  2  1.50        -9.5241   0.0000                                         
   Description                                                                  
     l       E           TYP  RCUT    TYP  RCUT                                 
     0    -23.9615318     23  1.200                                             
     0     -9.5240782     23  1.200                                             
     1     -9.0304911     23  1.520                                             
     1      8.1634956     23  1.520                                             
     2     -9.5240782      7  1.500                                             
  local pseudopotential read in
  partial core-charges read in
  partial kinetic energy density read in
  kinetic energy density of atom read in
  atomic valenz-charges read in
  non local Contribution for L=           0  read in
    real space projection operators read in
  non local Contribution for L=           0  read in
    real space projection operators read in
  non local Contribution for L=           1  read in
    real space projection operators read in
  non local Contribution for L=           1  read in
    real space projection operators read in
    PAW grid and wavefunctions read in
 
   number of l-projection  operators is LMAX  =           4
   number of lm-projection operators is LMMAX =           8
 

 ----------------------------------------------------------------------------- 
|                                                                             |
|  ADVICE TO THIS USER RUNNING 'VASP/VAMP'   (HEAR YOUR MASTER'S VOICE ...):  |
|                                                                             |
|      You have a (more or less) 'large supercell' and for larger cells       |
|      it might be more efficient to use real space projection opertators     |
|      So try LREAL= Auto  in the INCAR   file.                               |
|      Mind: At the moment your POTCAR file does not contain real space       |
|       projectors, and has to be modified,  BUT if you                       |
|      want to do an extremely  accurate calculation you might also keep the  |
|      reciprocal projection scheme          (i.e. LREAL=.FALSE.)             |
|                                                                             |
 ----------------------------------------------------------------------------- 

 WARNING: PSMAXN for non-local potential too small
          PSMAXN should be >   12.5490833729506       NTYP=           5
  PAW_PBE Al 04Jan2001                  :
 energy of atom  1       EATOM=  -53.5387
 kinetic energy error for atom=    0.0002 (will be added to EATOM!!)
  PAW_PBE Nb_sv 25May2007               :
 energy of atom  2       EATOM=-1555.1913
 kinetic energy error for atom=    0.0037 (will be added to EATOM!!)
  PAW_PBE Ta 17Jan2003                  :
 energy of atom  3       EATOM= -130.6506
 kinetic energy error for atom=    0.0004 (will be added to EATOM!!)
  PAW_PBE Ti 08Apr2002                  :
 energy of atom  4       EATOM=  -94.7928
 kinetic energy error for atom=    0.0001 (will be added to EATOM!!)
 PAW_PBE Zr 08Apr2002                   :
 energy of atom  5       EATOM=  -77.8472
 kinetic energy error for atom=    0.0001 (will be added to EATOM!!)
  PAW_PBE O 08Apr2002                   :
 energy of atom  6       EATOM= -432.3788
 kinetic energy error for atom=    0.0168 (will be added to EATOM!!)
 
 
 POSCAR: Al Nb Ta Ti Zr                          
  positions in direct lattice
  velocities in cartesian coordinates
 exchange correlation table for  LEXCH =        8
   RHO(1)=    0.500       N(1)  =     2000
   RHO(2)=  100.500       N(2)  =     4000
 


--------------------------------------------------------------------------------------------------------


 ion  position               nearest neighbor table
   1  0.623  0.867  0.376-  34 2.83  25 2.88  24 2.88   9 2.88  13 2.90   4 2.91  61 2.93  15 3.16
                            41 3.35  17 3.40
   2  0.622  0.390  0.546-  31 2.78  14 2.78  23 2.79  26 2.79  33 2.81  10 2.88   7 2.88  62 2.98
                            18 3.03  16 3.14  17 3.18   3 3.31  42 3.33
   3  0.616  0.645  0.627-  32 2.78  14 2.87  23 2.88  33 2.90   8 2.91  27 2.95  26 3.01  45 3.14
                             2 3.31
   4  0.618  0.084  0.450-  31 2.80  24 2.86  34 2.87  13 2.88   1 2.91  25 2.92   7 2.92  10 2.93
                            62 2.99  12 3.15  28 3.16  46 3.24
   5  0.976  0.640  0.554-  30 2.76  27 2.82  42 2.92  56 2.96  54 2.99  59 3.02  52 3.02  58 3.07
                            63 3.08  47 3.16  57 3.34
   6  0.980  0.121  0.378-  29 2.80  28 2.80  53 2.91  41 2.96  51 3.05  55 3.05  60 3.08  57 3.37

   7  0.729  0.343  0.458-  28 2.77  29 2.83  31 2.85   2 2.88  17 2.89  11 2.90   4 2.92  62 3.02
                            63 3.07  42 3.07
   8  0.726  0.904  0.621-  30 2.62  12 2.73  27 2.74  32 2.75  18 2.80   3 2.91  64 3.11  62 3.14

   9  0.517  0.608  0.367-  35 2.84  15 2.85  17 2.87   1 2.88  11 2.89  61 2.95  43 3.10
  10  0.514  0.132  0.541-  18 2.77  36 2.78  16 2.80  12 2.86   2 2.88   4 2.93  46 2.96  31 2.96
                            62 3.09  44 3.12
  11  0.618  0.343  0.369-  24 2.75  34 2.83  31 2.87   9 2.89   7 2.90  61 2.96  43 3.27
  12  0.621  0.875  0.538-  13 2.70   8 2.73  32 2.73  23 2.80  25 2.82  10 2.86  33 2.91  62 2.93
                             4 3.15  44 3.36
  13  0.742  0.843  0.462-  12 2.70  17 2.87   4 2.88  30 2.88   1 2.90  28 2.94  63 2.98  23 2.98
                            41 3.05  57 3.27  62 3.46
  14  0.743  0.407  0.627-  27 2.71   2 2.78  42 2.81  18 2.82   3 2.87  64 2.99  58 3.13
  15  0.394  0.847  0.369-  22 2.68  19 2.76  25 2.83  34 2.84   9 2.85  39 2.98   1 3.16  46 3.43

  16  0.395  0.369  0.542-  20 2.64  21 2.65  26 2.74  10 2.80  33 2.85  31 2.86  37 2.90  40 3.07
                             2 3.14
  17  0.619  0.602  0.458-  25 2.81  23 2.81  33 2.82  31 2.85   9 2.87  13 2.87   7 2.89  61 2.95
                            35 3.03   2 3.18   1 3.40  63 3.44
  18  0.629  0.162  0.622-  26 2.77  10 2.77  62 2.78   8 2.80  14 2.82  32 2.84   2 3.03  64 3.31
                            36 3.31
  19  0.279  0.834  0.451-  15 2.76  35 2.94  46 2.96  39 2.97  25 2.99  44 3.00  60 3.07  51 3.08
                            47 3.12  56 3.17
  20  0.285  0.381  0.621-  16 2.64  36 2.84  26 2.94  45 2.98  21 2.99  52 3.04  59 3.05  40 3.14
                            48 3.15
  21  0.280  0.592  0.541-  16 2.65  59 2.89  45 2.93  35 2.98  52 2.99  20 2.99  44 3.00  33 3.04
                            37 3.06  47 3.10  56 3.14
  22  0.283  0.077  0.361-  15 2.68  46 2.97  43 2.97  34 2.99  51 3.02  55 3.10  60 3.10
  23  0.734  0.632  0.541-  27 2.70  30 2.77   2 2.79  12 2.80  17 2.81   3 2.88  63 2.97  13 2.98
                            42 2.98
  24  0.740  0.115  0.366-  29 2.73  11 2.75  28 2.85   4 2.86   1 2.88  41 3.00
  25  0.496  0.836  0.458-  35 2.78  17 2.81  12 2.82  15 2.83   1 2.88   4 2.92  44 2.98  19 2.99
                            46 2.99  33 3.04
  26  0.498  0.381  0.627-  16 2.74  18 2.77   2 2.79  36 2.87  20 2.94   3 3.01  45 3.02
  27  0.831  0.660  0.625-  23 2.70  14 2.71   8 2.74   5 2.82  58 2.83  30 2.87   3 2.95  54 3.13
                            42 3.49
  28  0.847  0.110  0.455-  62 2.76   7 2.77   6 2.80  24 2.85  57 2.90  13 2.94  53 2.98  29 3.15
                             4 3.16  50 3.24  41 3.36
  29  0.852  0.349  0.376-  24 2.73   6 2.80   7 2.83  53 2.94  61 2.98  49 3.07  28 3.15  63 3.25

  30  0.851  0.866  0.551-   8 2.62   5 2.76  23 2.77  27 2.87  13 2.88  54 2.90  57 2.95  62 2.98
                            50 3.10
  31  0.522  0.339  0.461-   2 2.78   4 2.80  17 2.85   7 2.85  35 2.86  16 2.86  11 2.87  46 2.95
                            10 2.96  43 3.11
  32  0.526  0.905  0.624-  65 2.00  12 2.73   8 2.75   3 2.78  36 2.82  18 2.84  44 2.97  45 3.07

  33  0.500  0.626  0.540-   2 2.81  17 2.82  35 2.85  16 2.85   3 2.90  12 2.91  44 2.91  45 2.93
                            25 3.04  21 3.04
  34  0.499  0.102  0.365-  11 2.83   1 2.83  15 2.84   4 2.87  43 2.91  46 2.98  22 2.99
  35  0.400  0.580  0.451-  25 2.78   9 2.84  33 2.85  31 2.86  37 2.88  39 2.93  19 2.94  21 2.98
                            17 3.03  43 3.08
  36  0.390  0.125  0.620-  65 2.20  10 2.78  40 2.82  32 2.82  20 2.84  26 2.87  38 2.95  44 3.15
                            18 3.31
  37  0.255  0.366  0.464-  35 2.88  16 2.90  47 3.02  60 3.04  43 3.05  21 3.06  55 3.08  46 3.08
                            52 3.11  40 3.23  39 3.39
  38  0.237  0.911  0.626-  65 2.02  56 2.83  59 2.91  44 2.94  36 2.95  40 3.02  48 3.12  45 3.23
                            54 3.26
  39  0.252  0.614  0.376-  35 2.93  19 2.97  15 2.98  47 3.07  43 3.07  51 3.07  55 3.08  37 3.39
                            49 3.53
  40  0.244  0.134  0.548-  36 2.82  38 3.02  60 3.04  16 3.07  52 3.07  44 3.10  48 3.14  20 3.14
                            56 3.16  46 3.22  37 3.23  50 3.42
  41  0.865  0.859  0.370-   6 2.96  24 3.00  61 3.05  13 3.05  57 3.06  49 3.12   1 3.35  28 3.36
                            51 3.49  63 3.53
  42  0.864  0.383  0.545-  14 2.81   5 2.92  62 2.98  23 2.98   7 3.07  58 3.09  63 3.13  50 3.15
                            53 3.20  64 3.33   2 3.33  52 3.45  27 3.49
  43  0.381  0.352  0.373-  34 2.91  22 2.97  37 3.05  39 3.07  35 3.08   9 3.10  31 3.11  55 3.26
                            11 3.27  46 3.29
  44  0.377  0.873  0.547-  65 2.44  33 2.91  38 2.94  32 2.97  25 2.98  21 3.00  19 3.00  40 3.10
                            45 3.11  10 3.12  36 3.15  46 3.35  12 3.36  56 3.36
  45  0.388  0.654  0.630-  65 2.36  21 2.93  33 2.93  20 2.98  26 3.02  32 3.07  44 3.11   3 3.14
                            38 3.23  59 3.30
  46  0.384  0.104  0.456-  31 2.95  19 2.96  10 2.96  22 2.97  34 2.98  25 2.99  37 3.08  40 3.22
                             4 3.24  60 3.27  43 3.29  44 3.35  15 3.43
  47  0.117  0.611  0.465-  37 3.02  56 3.06  39 3.07  21 3.10  19 3.12  53 3.14  49 3.15   5 3.16
                            57 3.17  52 3.17  63 3.42  51 3.52  55 3.80
  48  0.108  0.177  0.638-  66 2.08  50 3.06  38 3.12  40 3.14  20 3.15  52 3.18  58 3.22  54 3.26
                            64 3.32
  49  0.996  0.593  0.368-  63 3.05  29 3.07  41 3.12  47 3.15  51 3.16  55 3.23  53 3.44  39 3.53
                            61 3.65  57 3.82
  50  0.996  0.114  0.546-  48 3.06  64 3.07  30 3.10  52 3.14  54 3.15  42 3.15  57 3.19  56 3.21
                            28 3.24  53 3.29  60 3.36  40 3.42  62 3.55
  51  0.119  0.872  0.375-  60 3.00  22 3.02   6 3.05  39 3.07  19 3.08  57 3.16  49 3.16  41 3.49
                            47 3.52
  52  0.114  0.394  0.551-  21 2.99   5 3.02  59 3.04  20 3.04  40 3.07  37 3.11  50 3.14  47 3.17
                            48 3.18  53 3.20  58 3.27  42 3.45
  53  1.000  0.331  0.453-   6 2.91  29 2.94  28 2.98  60 3.06  63 3.08  55 3.09  47 3.14  52 3.20
                            42 3.20  50 3.29  49 3.44
  54  0.001  0.876  0.624-  30 2.90  56 2.99   5 2.99  59 3.09  27 3.13  50 3.15  64 3.23  38 3.26
                            48 3.26
  55  0.145  0.332  0.368-   6 3.05  37 3.08  39 3.08  53 3.09  22 3.10  49 3.23  60 3.24  43 3.26
                            47 3.80
  56  0.135  0.845  0.540-  38 2.83   5 2.96  54 2.99  57 2.99  59 3.03  47 3.06  21 3.14  40 3.16
                            19 3.17  50 3.21  44 3.36  60 3.42
  57  0.979  0.876  0.465-  28 2.90  30 2.95  56 2.99  41 3.06  63 3.11  60 3.13  51 3.16  47 3.17
                            50 3.19  13 3.27   5 3.34   6 3.37  49 3.82
  58  0.966  0.444  0.642-  66 2.08  27 2.83   5 3.07  42 3.09  64 3.11  14 3.13  59 3.16  48 3.22
                            52 3.27
  59  0.150  0.634  0.621-  21 2.89  38 2.91   5 3.02  56 3.03  52 3.04  20 3.05  54 3.09  58 3.16
                            45 3.30
  60  0.147  0.092  0.451-  51 3.00  37 3.04  40 3.04  53 3.06  19 3.07   6 3.08  22 3.10  57 3.13
                            55 3.24  46 3.27  50 3.36  56 3.42
  61  0.731  0.606  0.367-   1 2.93  17 2.95   9 2.95  11 2.96  29 2.98  41 3.05  63 3.17  49 3.65

  62  0.739  0.129  0.538-  28 2.76  18 2.78  12 2.93  30 2.98   2 2.98  42 2.98   4 2.99   7 3.02
                            10 3.09   8 3.14  64 3.23  13 3.46  50 3.55
  63  0.869  0.592  0.458-  23 2.97  13 2.98  49 3.05   7 3.07   5 3.08  53 3.08  57 3.11  42 3.13
                            61 3.17  29 3.25  47 3.42  17 3.44  41 3.53
  64  0.868  0.153  0.635-  66 2.15  14 2.99  50 3.07  58 3.11   8 3.11  62 3.23  54 3.23  18 3.31
                            48 3.32  42 3.33
  65  0.382  0.900  0.635-  32 2.00  38 2.02  36 2.20  45 2.36  44 2.44
  66  0.986  0.250  0.674-  48 2.08  58 2.08  64 2.15
 
  LATTYP: Found a simple orthorhombic cell.
 ALAT       =     9.5644817352
 B/A-ratio  =     1.4398428730
 C/A-ratio  =     2.8922184390
  
  Lattice vectors:
  
 A1 = (   0.0000000000,  -9.5644817352,   0.0000000000)
 A2 = ( -13.7713508606,   0.0000000000,   0.0000000000)
 A3 = (   0.0000000000,   0.0000000000, -27.6625704340)


Analysis of symmetry for initial positions (statically):
=====================================================================
 Subroutine PRICEL returns:
 Original cell was already a primitive cell.
 

 Routine SETGRP: Setting up the symmetry group for a 
 simple orthorhombic supercell.


 Subroutine GETGRP returns: Found  1 space group operations
 (whereof  1 operations were pure point group operations)
 out of a pool of  8 trial point group operations.


The static configuration has the point symmetry C_1 .


Analysis of symmetry for dynamics (positions and initial velocities):
=====================================================================
 Subroutine PRICEL returns:
 Original cell was already a primitive cell.
 

 Routine SETGRP: Setting up the symmetry group for a 
 simple orthorhombic supercell.


 Subroutine GETGRP returns: Found  1 space group operations
 (whereof  1 operations were pure point group operations)
 out of a pool of  8 trial point group operations.


The dynamic configuration has the point symmetry C_1 .


Analysis of constrained symmetry for selective dynamics:
=====================================================================
 Subroutine PRICEL returns:
 Original cell was already a primitive cell.
 

 Routine SETGRP: Setting up the symmetry group for a 
 simple orthorhombic supercell.


 Subroutine GETGRP returns: Found  1 space group operations
 (whereof  1 operations were pure point group operations)
 out of a pool of  8 trial point group operations.


The constrained configuration has the point symmetry C_1 .


 Subroutine INISYM returns: Found  1 space group operations
 (whereof  1 operations are pure point group operations),
 and found     1 'primitive' translations

 
 
 KPOINTS: k-points                                

Automatic generation of k-mesh.
Space group operators:
 irot       det(A)        alpha          n_x          n_y          n_z        tau_x        tau_y        tau_z
    1     1.000000     0.000000     1.000000     0.000000     0.000000     0.000000     0.000000     0.000000
 
 Subroutine IBZKPT returns following result:
 ===========================================
 
 Found      5 irreducible k-points:
 
 Following reciprocal coordinates:
            Coordinates               Weight
  0.000000  0.000000  0.000000      1.000000
  0.333333  0.000000  0.000000      2.000000
  0.000000  0.333333  0.000000      2.000000
  0.333333  0.333333  0.000000      2.000000
 -0.333333  0.333333  0.000000      2.000000
 
 Following cartesian coordinates:
            Coordinates               Weight
  0.000000  0.000000  0.000000      1.000000
  0.024205  0.000000  0.000000      2.000000
  0.000000  0.034851  0.000000      2.000000
  0.024205  0.034851  0.000000      2.000000
 -0.024205  0.034851  0.000000      2.000000
 


--------------------------------------------------------------------------------------------------------




 Dimension of arrays:
   k-points           NKPTS =      5   k-points in BZ     NKDIM =      5   number of bands    NBANDS=    214
   number of dos      NEDOS =    301   number of ions     NIONS =     66
   non local maximal  LDIM  =      6   non local SUM 2l+1 LMDIM =     18
   total plane-waves  NPLWV = 846720
   max r-space proj   IRMAX =      1   max aug-charges    IRDMAX=  25433
   dimension x,y,z NGX =    84 NGY =   60 NGZ =  168
   dimension x,y,z NGXF=   168 NGYF=  120 NGZF=  336
   support grid    NGXF=   168 NGYF=  120 NGZF=  336
   ions per type =               6  10   4  18  26   2
 NGX,Y,Z   is equivalent  to a cutoff of  10.14, 10.43, 10.10 a.u.
 NGXF,Y,Z  is equivalent  to a cutoff of  20.28, 20.86, 20.19 a.u.


 I would recommend the setting:
   dimension x,y,z NGX =    83 NGY =   57 NGZ =  166
 SYSTEM =  (110) surface                           
 POSCAR =  Al Nb Ta Ti Zr                          

 Startparameter for this run:
   NWRITE =      2    write-flag & timer
   PREC   = normal    normal or accurate (medium, high low for compatibility)
   ISTART =      0    job   : 0-new  1-cont  2-samecut
   ICHARG =      2    charge: 1-file 2-atom 10-const
   ISPIN  =      1    spin polarized calculation?
   LNONCOLLINEAR =      F non collinear calculations
   LSORBIT =      F    spin-orbit coupling
   INIWAV =      1    electr: 0-lowe 1-rand  2-diag
   LASPH  =      F    aspherical Exc in radial PAW
   METAGGA=      F    non-selfconsistent MetaGGA calc.

 Electronic Relaxation 1
   ENCUT  =  600.0 eV  44.10 Ry    6.64 a.u.  27.50 19.10 55.25*2*pi/ulx,y,z
   ENINI  =  600.0     initial cutoff
   ENAUG  =  605.4 eV  augmentation charge cutoff
   NELM   =     60;   NELMIN=  2; NELMDL= -5     # of ELM steps 
   EDIFF  = 0.1E-03   stopping-criterion for ELM
   LREAL  =      F    real-space projection
   NLSPLINE    = F    spline interpolate recip. space projectors
   LCOMPAT=      F    compatible to vasp.4.4
   GGA_COMPAT  = T    GGA compatible to vasp.4.4-vasp.4.6
   LMAXPAW     = -100 max onsite density
   LMAXMIX     =    2 max onsite mixed and CHGCAR
   VOSKOWN=      0    Vosko Wilk Nusair interpolation
   ROPT   =    0.00000   0.00000   0.00000   0.00000
   ROPT   =    0.00000   0.00000
 Ionic relaxation
   EDIFFG = -.1E-01   stopping-criterion for IOM
   NSW    =    150    number of steps for IOM
   NBLOCK =      1;   KBLOCK =    150    inner block; outer block 
   IBRION =      2    ionic relax: 0-MD 1-quasi-New 2-CG
   NFREE  =      1    steps in history (QN), initial steepest desc. (CG)
   ISIF   =      2    stress and relaxation
   IWAVPR =     11    prediction:  0-non 1-charg 2-wave 3-comb
   ISYM   =      2    0-nonsym 1-usesym 2-fastsym
   LCORR  =      T    Harris-Foulkes like correction to forces

   POTIM  = 0.1000    time-step for ionic-motion
   TEIN   =    0.0    initial temperature
   TEBEG  =    0.0;   TEEND  =   0.0 temperature during run
   SMASS  =  -3.00    Nose mass-parameter (am)
   estimated Nose-frequenzy (Omega)   =  0.10E-29 period in steps =****** mass=  -0.433E-26a.u.
   SCALEE = 1.0000    scale energy and forces
   NPACO  =    256;   APACO  = 16.0  distance and # of slots for P.C.
   PSTRESS=    0.0 pullay stress

  Mass of Ions in am
   POMASS =  26.98 92.91180.95 47.88 91.22 16.00
  Ionic Valenz
   ZVAL   =   3.00 13.00  5.00  4.00  4.00  6.00
  Atomic Wigner-Seitz radii
   RWIGS  =  -1.00 -1.00 -1.00 -1.00 -1.00 -1.00
  virtual crystal weights 
   VCA    =   1.00  1.00  1.00  1.00  1.00  1.00
   NELECT =     356.0000    total number of electrons
   NUPDOWN=      -1.0000    fix difference up-down

 DOS related values:
   EMIN   =  10.00;   EMAX   =-10.00  energy-range for DOS
   EFERMI =   0.00
   ISMEAR =     2;   SIGMA  =   0.10  broadening in eV -4-tet -1-fermi 0-gaus

 Electronic relaxation 2 (details)
   IALGO  =     68    algorithm
   LDIAG  =      T    sub-space diagonalisation (order eigenvalues)
   LSUBROT=      F    optimize rotation matrix (better conditioning)
   TURBO    =      0    0=normal 1=particle mesh
   IRESTART =      0    0=no restart 2=restart with 2 vectors
   NREBOOT  =      0    no. of reboots
   NMIN     =      0    reboot dimension
   EREF     =   0.00    reference energy to select bands
   IMIX   =      4    mixing-type and parameters
     AMIX     =   0.40;   BMIX     =  1.00
     AMIX_MAG =   1.60;   BMIX_MAG =  1.00
     AMIN     =   0.10
     WC   =   100.;   INIMIX=   1;  MIXPRE=   1;  MAXMIX= -45

 Intra band minimization:
   WEIMIN = 0.0010     energy-eigenvalue tresh-hold
   EBREAK =  0.12E-06  absolut break condition
   DEPER  =   0.30     relativ break condition  

   TIME   =   0.40     timestep for ELM

  volume/ion in A,a.u.               =      55.21       372.55
  Fermi-wavevector in a.u.,A,eV,Ry     =   0.754017  1.424886  7.735485  0.568542
  Thomas-Fermi vector in A             =   1.851589
 
 Write flags
   LWAVE  =      F    write WAVECAR
   LCHARG =      F    write CHGCAR
   LVTOT  =      F    write LOCPOT, total local potential
   LVHAR  =      F    write LOCPOT, Hartree potential only
   LELF   =      F    write electronic localiz. function (ELF)
   LORBIT =      0    0 simple, 1 ext, 2 COOP (PROOUT)


 Dipole corrections
   LMONO  =      F    monopole corrections only (constant potential shift)
   LDIPOL =      F    correct potential (dipole corrections)
   IDIPOL =      0    1-x, 2-y, 3-z, 4-all directions 
   EPSILON=  1.0000000 bulk dielectric constant

 Exchange correlation treatment:
   GGA     =    --    GGA type
   LEXCH   =     8    internal setting for exchange type
   VOSKOWN=      0    Vosko Wilk Nusair interpolation
   LHFCALC =     F    Hartree Fock is set to
   LHFONE  =     F    Hartree Fock one center treatment
   AEXX    =    0.0000 exact exchange contribution

 Linear response parameters
   LEPSILON=     F    determine dielectric tensor
   LRPA    =     F    only Hartree local field effects (RPA)
   LNABLA  =     F    use nabla operator in PAW spheres
   LVEL    =     F    velocity operator in full k-point grid
   LINTERFAST=   F  fast interpolation
   KINTER  =     0    interpolate to denser k-point grid
   CSHIFT  =0.1000    complex shift for real part using Kramers Kronig
   OMEGAMAX=  -1.0    maximum frequency
   DEG_THRESHOLD= 0.2000000E-02 threshold for treating states as degnerate
   RTIME   =    0.100 relaxation time in fs

 Orbital magnetization related:
   ORBITALMAG=     F  switch on orbital magnetization
   LCHIMAG   =     F  perturbation theory with respect to B field
   DQ        =  0.001000  dq finite difference perturbation B field



--------------------------------------------------------------------------------------------------------


 conjugate gradient relaxation of ions
   using selective dynamics as specified on POSCAR
 charge density and potential will be updated during run
 non-spin polarized calculation
 RMM-DIIS sequential band-by-band and
  variant of blocked Davidson during initial phase
 perform sub-space diagonalisation
    before iterative eigenvector-optimisation
 modified Broyden-mixing scheme, WC =      100.0
 initial mixing is a Kerker type mixing with AMIX =  0.4000 and BMIX =      1.0000
 Hartree-type preconditioning will be used
 using additional bands           36
 reciprocal scheme for non local part
 use partial core corrections
 calculate Harris-corrections to forces 
   (improved forces if not selfconsistent)
 use gradient corrections 
 use of overlap-Matrix (Vanderbilt PP)
 Methfessel and Paxton  Order N= 2 SIGMA  =   0.10


--------------------------------------------------------------------------------------------------------


  energy-cutoff  :      600.00
  volume of cell :     3643.60
      direct lattice vectors                 reciprocal lattice vectors
    13.771350861  0.000000000  0.000000000     0.072614518  0.000000000  0.000000000
     0.000000000  9.564481735  0.000000000     0.000000000  0.104553496  0.000000000
     0.000000000  0.000000000 27.662570434     0.000000000  0.000000000  0.036149931

  length of vectors
    13.771350861  9.564481735 27.662570434     0.072614518  0.104553496  0.036149931


 
 k-points in units of 2pi/SCALE and weight: k-points                                
   0.00000000  0.00000000  0.00000000       0.111
   0.02420484  0.00000000  0.00000000       0.222
   0.00000000  0.03485117  0.00000000       0.222
   0.02420484  0.03485117  0.00000000       0.222
  -0.02420484  0.03485117  0.00000000       0.222
 
 k-points in reciprocal lattice and weights: k-points                                
   0.00000000  0.00000000  0.00000000       0.111
   0.33333333  0.00000000  0.00000000       0.222
   0.00000000  0.33333333  0.00000000       0.222
   0.33333333  0.33333333  0.00000000       0.222
  -0.33333333  0.33333333  0.00000000       0.222
 
 position of ions in fractional coordinates (direct lattice) 
   0.62276447  0.86746430  0.37590333
   0.62173059  0.39023817  0.54639045
   0.61646794  0.64532121  0.62704306
   0.61839700  0.08363760  0.44965952
   0.97640819  0.64024597  0.55446447
   0.97963780  0.12056648  0.37767599
   0.72857308  0.34338307  0.45816820
   0.72614409  0.90413783  0.62055049
   0.51739597  0.60805875  0.36719826
   0.51415077  0.13207965  0.54054629
   0.61811078  0.34297293  0.36889183
   0.62057962  0.87515512  0.53780982
   0.74231148  0.84345710  0.46199300
   0.74271689  0.40657374  0.62657725
   0.39405298  0.84738672  0.36896032
   0.39463235  0.36945062  0.54229588
   0.61928761  0.60162497  0.45752798
   0.62932796  0.16156219  0.62212195
   0.27944195  0.83362269  0.45088327
   0.28492383  0.38078771  0.62062541
   0.28045310  0.59197980  0.54104773
   0.28324246  0.07725573  0.36149931
   0.73411650  0.63229843  0.54096765
   0.74002355  0.11549973  0.36646499
   0.49591756  0.83582580  0.45790018
   0.49841986  0.38098775  0.62653895
   0.83062634  0.66048397  0.62549749
   0.84724605  0.11017048  0.45460239
   0.85243583  0.34907103  0.37639265
   0.85136443  0.86604484  0.55063373
   0.52175105  0.33942658  0.46105252
   0.52621971  0.90492718  0.62392869
   0.50028267  0.62553918  0.54007580
   0.49943882  0.10200214  0.36464270
   0.40016663  0.58028412  0.45130253
   0.39016430  0.12488181  0.61965220
   0.25505811  0.36595738  0.46399110
   0.23672390  0.91060639  0.62571805
   0.25182599  0.61397660  0.37627308
   0.24389793  0.13368010  0.54847562
   0.86539888  0.85904646  0.37036829
   0.86372842  0.38270622  0.54524845
   0.38059813  0.35186696  0.37331264
   0.37738101  0.87257295  0.54698001
   0.38824643  0.65350837  0.62972773
   0.38408008  0.10357511  0.45579618
   0.11657381  0.61110574  0.46457054
   0.10848435  0.17746512  0.63836134
   0.99629861  0.59295863  0.36811234
   0.99599477  0.11358326  0.54556439
   0.11869311  0.87196302  0.37467704
   0.11379787  0.39423641  0.55130940
   0.99977952  0.33051389  0.45306987
   0.00142745  0.87637405  0.62427728
   0.14482272  0.33176249  0.36788561
   0.13466920  0.84472560  0.53974355
   0.97888047  0.87608504  0.46520830
   0.96639975  0.44440866  0.64225411
   0.14952059  0.63370019  0.62125856
   0.14721048  0.09173214  0.45072276
   0.73135245  0.60578495  0.36679988
   0.73870701  0.12941481  0.53841662
   0.86923259  0.59196168  0.45825814
   0.86830324  0.15276401  0.63543477
   0.38230248  0.89968543  0.63461374
   0.98576095  0.24974786  0.67428834
 
 position of ions in cartesian coordinates  (Angst):
   8.57630799  8.29684649 10.39845223
   8.56207008  3.73242588 15.11456418
   8.48959624  6.17216290 17.34562282
   8.51616202  0.79995025 12.43873821
  13.44645979  6.12362086 15.33791256
  13.49093588  1.15315590 10.44748880
  10.03343557  3.28428114 12.67411000
   9.99998502  8.64760981 17.16602172
   7.12524148  5.81576681 10.15764776
   7.08055066  1.26327342 14.95289987
   8.51222037  3.28035836 10.20449636
   8.54621970  8.37040515 14.87720194
  10.22263181  8.06723005 12.77991378
  10.22821483  3.88866715 17.33273737
   5.42664188  8.10481479 10.20639088
   5.43462052  3.53360373 15.00129786
   8.52842696  5.75423100 12.65640004
   8.66669610  1.54525860 17.20949237
   3.84829318  7.97316903 12.47259035
   3.92378608  3.64203706 17.16809418
   3.86221804  5.66197996 14.96677091
   3.90063135  0.73891098 10.00000000
  10.10977592  6.04760680 14.96455581
  10.19112400  1.10469510 10.13736353
   6.82945470  7.99424061 12.66669595
   6.86391483  3.64395034 17.33167786
  11.43884680  6.31718690 17.30286840
  11.66772263  1.05372358 12.57547056
  11.73919286  3.33868345 10.41198829
  11.72443822  8.28327009 15.23194435
   7.18521672  3.24643930 12.75389771
   7.24675621  8.65515948 17.25947127
   6.88956815  5.98295803 14.93988496
   6.87794726  0.97559764 10.08695433
   5.51083508  5.55011685 12.48418803
   5.37308952  1.19442977 17.14117260
   3.51249472  3.50019267 12.83518635
   3.26000793  8.70947816 17.30896966
   3.46798404  5.87236796 10.40868071
   3.35880394  1.27858087 15.17224542
  11.91771166  8.21633417 10.24533883
  11.89470717  3.66038666 15.08297375
   5.24135036  3.36542512 10.32678719
   5.19704632  8.34570805 15.13087316
   5.34667785  6.25046887 17.41988770
   5.28930157  0.99064225 12.60849381
   1.60537885  5.84490969 12.85121538
   1.49397602  1.69736194 17.65871564
  13.72037774  5.67134198 10.18293350
  13.71619349  1.08636506 15.09171349
   1.63456451  8.33987442 10.36453009
   1.56715044  3.77066693 15.25063512
  13.76831459  3.16119411 12.53307716
   0.01965791  8.38206362 17.26911418
   1.99440444  3.17313630 10.17666150
   1.85457684  8.07936258 14.93069404
  13.48050634  8.37929939 12.86885734
  13.30863009  4.25053849 17.76639951
   2.05910047  6.06101391 17.18560856
   2.02728715  0.87737042 12.46815015
  10.07171117  5.79401911 10.14662739
  10.17299347  1.23778554 14.89398761
  11.97050705  5.66180669 12.67659812
  11.95770855  1.46110862 17.57775911
   5.26482154  8.60502491 17.55504732
  13.57525984  2.38870884 18.65254872
 


--------------------------------------------------------------------------------------------------------


 k-point  1 :   0.0000 0.0000 0.0000  plane waves:  121663
 k-point  2 :   0.3333 0.0000 0.0000  plane waves:  121577
 k-point  3 :   0.0000 0.3333 0.0000  plane waves:  121622
 k-point  4 :   0.3333 0.3333 0.0000  plane waves:  121647
 k-point  5 :  -0.3333 0.3333 0.0000  plane waves:  121647

 maximum and minimum number of plane-waves per node :      2568     2510

 maximum number of plane-waves:    121663
 maximum index in each direction: 
   IXMAX=   27   IYMAX=   19   IZMAX=   55
   IXMIN=  -27   IYMIN=  -19   IZMIN=  -55

 WARNING: aliasing errors must be expected set NGX to 110 to avoid them
 WARNING: aliasing errors must be expected set NGY to  78 to avoid them
 WARNING: aliasing errors must be expected set NGZ to 222 to avoid them
 aliasing errors are usually negligible using standard VASP settings
 and one can safely disregard these warnings

 parallel 3D FFT for wavefunctions:
    minimum data exchange during FFTs selected (reduces bandwidth)
 parallel 3D FFT for charge:
    minimum data exchange during FFTs selected (reduces bandwidth)


 total amount of memory used by VASP on root node    76880. kBytes
========================================================================

   base      :      30000. kBytes
   nonl-proj :      13633. kBytes
   fftplans  :       3278. kBytes
   grid      :       7939. kBytes
   one-center:         31. kBytes
   wavefun   :      21999. kBytes
 
     INWAV:  cpu time    0.0000: real time    0.0000
 Broyden mixing: mesh for mixing (old mesh)
   NGX = 55   NGY = 39   NGZ =111
  (NGX  =168   NGY  =120   NGZ  =336)
  gives a total of 238095 points

 initial charge density was supplied:
 charge density of overlapping atoms calculated
 number of electron     356.0000000 magnetization 
 keeping initial charge density in first step


--------------------------------------------------------------------------------------------------------


 Maximum index for augmentation-charges         1033 (set IRDMAX)


--------------------------------------------------------------------------------------------------------


 First call to EWALD:  gamma=   0.115
 Maximum number of real-space cells 3x 4x 2
 Maximum number of reciprocal cells 3x 2x 5

 FEWALD executed in parallel
    FEWALD:  cpu time    0.0022: real time    0.0022


----------------------------------------- Iteration    1(   1)  ---------------------------------------


    POTLOK:  cpu time    0.0590: real time    0.0592
    SETDIJ:  cpu time    0.0127: real time    0.0129
     EDDAV:  cpu time    8.5762: real time    8.5860
       DOS:  cpu time    0.0014: real time    0.0014
    --------------------------------------------
      LOOP:  cpu time    8.6525: real time    8.6656

 eigenvalue-minimisations  :  2252
 total energy-change (2. order) : 0.4024898E+04  (-0.1291851E+05)
 number of electron     356.0000000 magnetization 
 augmentation part      356.0000000 magnetization 

 Free energy of the ion-electron system (eV)
  ---------------------------------------------------
  alpha Z        PSCENC =       529.78975023
  Ewald energy   TEWEN  =     73073.32194828
  -Hartree energ DENC   =    -91901.39594176
  -exchange      EXHF   =         0.00000000
  -V(xc)+E(xc)   XCENC  =     -3032.99329430
  PAW double counting   =     20132.38007695   -16044.74363903
  entropy T*S    EENTRO =        -0.00129729
  eigenvalues    EBANDS =       277.81372562
  atomic energy  EATOM  =     20990.72652202
  Solvation  Ediel_sol  =         0.00000000
  ---------------------------------------------------
  free energy    TOTEN  =      4024.89785072 eV

  energy without entropy =     4024.89914800  energy(sigma->0) =     4024.89817504


--------------------------------------------------------------------------------------------------------




----------------------------------------- Iteration    1(   2)  ---------------------------------------


     EDDAV:  cpu time    8.8987: real time    8.9033
       DOS:  cpu time    0.0014: real time    0.0014
    --------------------------------------------
      LOOP:  cpu time    8.9014: real time    8.9074

 eigenvalue-minimisations  :  2376
 total energy-change (2. order) :-0.3704194E+04  (-0.3603040E+04)
 number of electron     356.0000000 magnetization 
 augmentation part      356.0000000 magnetization 

 Free energy of the ion-electron system (eV)
  ---------------------------------------------------
  alpha Z        PSCENC =       529.78975023
  Ewald energy   TEWEN  =     73073.32194828
  -Hartree energ DENC   =    -91901.39594176
  -exchange      EXHF   =         0.00000000
  -V(xc)+E(xc)   XCENC  =     -3032.99329430
  PAW double counting   =     20132.38007695   -16044.74363903
  entropy T*S    EENTRO =        -0.00698136
  eigenvalues    EBANDS =     -3426.37495032
  atomic energy  EATOM  =     20990.72652202
  Solvation  Ediel_sol  =         0.00000000
  ---------------------------------------------------
  free energy    TOTEN  =       320.70349071 eV

  energy without entropy =      320.71047207  energy(sigma->0) =      320.70523605


--------------------------------------------------------------------------------------------------------




----------------------------------------- Iteration    1(   3)  ---------------------------------------


     EDDAV:  cpu time   13.3896: real time   13.4021
       DOS:  cpu time    0.0013: real time    0.0013
    --------------------------------------------
      LOOP:  cpu time   13.3921: real time   13.4063

 eigenvalue-minimisations  :  3944
 total energy-change (2. order) :-0.8021762E+03  (-0.7793403E+03)
 number of electron     356.0000000 magnetization 
 augmentation part      356.0000000 magnetization 

 Free energy of the ion-electron system (eV)
  ---------------------------------------------------
  alpha Z        PSCENC =       529.78975023
  Ewald energy   TEWEN  =     73073.32194828
  -Hartree energ DENC   =    -91901.39594176
  -exchange      EXHF   =         0.00000000
  -V(xc)+E(xc)   XCENC  =     -3032.99329430
  PAW double counting   =     20132.38007695   -16044.74363903
  entropy T*S    EENTRO =        -0.01355985
  eigenvalues    EBANDS =     -4228.54452915
  atomic energy  EATOM  =     20990.72652202
  Solvation  Ediel_sol  =         0.00000000
  ---------------------------------------------------
  free energy    TOTEN  =      -481.47266662 eV

  energy without entropy =     -481.45910677  energy(sigma->0) =     -481.46927665


--------------------------------------------------------------------------------------------------------




----------------------------------------- Iteration    1(   4)  ---------------------------------------


     EDDAV:  cpu time   12.1254: real time   12.1341
       DOS:  cpu time    0.0013: real time    0.0013
    --------------------------------------------
      LOOP:  cpu time   12.1280: real time   12.1383

 eigenvalue-minimisations  :  3512
 total energy-change (2. order) :-0.1037641E+03  (-0.9955063E+02)
 number of electron     356.0000000 magnetization 
 augmentation part      356.0000000 magnetization 

 Free energy of the ion-electron system (eV)
  ---------------------------------------------------
  alpha Z        PSCENC =       529.78975023
  Ewald energy   TEWEN  =     73073.32194828
  -Hartree energ DENC   =    -91901.39594176
  -exchange      EXHF   =         0.00000000
  -V(xc)+E(xc)   XCENC  =     -3032.99329430
  PAW double counting   =     20132.38007695   -16044.74363903
  entropy T*S    EENTRO =         0.00019235
  eigenvalues    EBANDS =     -4332.32241156
  atomic energy  EATOM  =     20990.72652202
  Solvation  Ediel_sol  =         0.00000000
  ---------------------------------------------------
  free energy    TOTEN  =      -585.23679682 eV

  energy without entropy =     -585.23698917  energy(sigma->0) =     -585.23684491


--------------------------------------------------------------------------------------------------------




----------------------------------------- Iteration    1(   5)  ---------------------------------------


     EDDAV:  cpu time   13.7719: real time   13.7827
       DOS:  cpu time    0.0013: real time    0.0013
    CHARGE:  cpu time    0.2010: real time    0.2017
    MIXING:  cpu time    0.0051: real time    0.0055
    --------------------------------------------
      LOOP:  cpu time   13.9805: real time   13.9943

 eigenvalue-minimisations  :  4080
 total energy-change (2. order) :-0.1461326E+02  (-0.1416451E+02)
 number of electron     356.0000035 magnetization 
 augmentation part       42.9254759 magnetization 

 Broyden mixing:
  rms(total) = 0.60525E+01    rms(broyden)= 0.60525E+01
  rms(prec ) = 0.66590E+01
  weight for this iteration     100.00

 Free energy of the ion-electron system (eV)
  ---------------------------------------------------
  alpha Z        PSCENC =       529.78975023
  Ewald energy   TEWEN  =     73073.32194828
  -Hartree energ DENC   =    -91901.39594176
  -exchange      EXHF   =         0.00000000
  -V(xc)+E(xc)   XCENC  =     -3032.99329430
  PAW double counting   =     20132.38007695   -16044.74363903
  entropy T*S    EENTRO =        -0.01173126
  eigenvalues    EBANDS =     -4346.92374788
  atomic energy  EATOM  =     20990.72652202
  Solvation  Ediel_sol  =         0.00000000
  ---------------------------------------------------
  free energy    TOTEN  =      -599.85005675 eV

  energy without entropy =     -599.83832550  energy(sigma->0) =     -599.84712394


--------------------------------------------------------------------------------------------------------




----------------------------------------- Iteration    1(   6)  ---------------------------------------


    POTLOK:  cpu time    0.0494: real time    0.0494
    SETDIJ:  cpu time    0.0061: real time    0.0061
    EDDIAG:  cpu time    0.7944: real time    0.8071
  RMM-DIIS:  cpu time    8.8244: real time    8.8247
    ORTHCH:  cpu time    0.2171: real time    0.2271
       DOS:  cpu time    0.0013: real time    0.0013
    CHARGE:  cpu time    0.1981: real time    0.1981
    MIXING:  cpu time    0.0028: real time    0.0029
    --------------------------------------------
      LOOP:  cpu time   10.0956: real time   10.1211

 eigenvalue-minimisations  :  3539
 total energy-change (2. order) :-0.5039678E+02  (-0.1464013E+03)
 number of electron     356.0000021 magnetization 
 augmentation part       58.2609380 magnetization 

 Broyden mixing:
  rms(total) = 0.42316E+01    rms(broyden)= 0.42315E+01
  rms(prec ) = 0.54389E+01
  weight for this iteration     100.00

 eigenvalues of (default mixing * dielectric matrix)
  average eigenvalue GAMMA=   0.7118
  0.7118

 Free energy of the ion-electron system (eV)
  ---------------------------------------------------
  alpha Z        PSCENC =       529.78975023
  Ewald energy   TEWEN  =     73073.32194828
  -Hartree energ DENC   =    -92589.59306722
  -exchange      EXHF   =         0.00000000
  -V(xc)+E(xc)   XCENC  =     -3020.41943623
  PAW double counting   =     23704.24788625   -19617.37277653
  entropy T*S    EENTRO =        -0.00116702
  eigenvalues    EBANDS =     -3720.94649717
  atomic energy  EATOM  =     20990.72652202
  Solvation  Ediel_sol  =         0.00000000
  ---------------------------------------------------
  free energy    TOTEN  =      -650.24683739 eV

  energy without entropy =     -650.24567037  energy(sigma->0) =     -650.24654564


--------------------------------------------------------------------------------------------------------




----------------------------------------- Iteration    1(   7)  ---------------------------------------


    POTLOK:  cpu time    0.0495: real time    0.0495
    SETDIJ:  cpu time    0.0060: real time    0.0060
    EDDIAG:  cpu time    0.7938: real time    0.8034
  RMM-DIIS:  cpu time    6.0359: real time    6.0359
    ORTHCH:  cpu time    0.2182: real time    0.2256
       DOS:  cpu time    0.0014: real time    0.0014
    CHARGE:  cpu time    0.1981: real time    0.1981
    MIXING:  cpu time    0.0019: real time    0.0019
    --------------------------------------------
      LOOP:  cpu time    7.3065: real time    7.3262

 eigenvalue-minimisations  :  2400
 total energy-change (2. order) : 0.1035900E+03  (-0.3309602E+02)
 number of electron     356.0000026 magnetization 
 augmentation part       49.4505087 magnetization 

 Broyden mixing:
  rms(total) = 0.28561E+01    rms(broyden)= 0.28561E+01
  rms(prec ) = 0.36410E+01
  weight for this iteration     100.00

 eigenvalues of (default mixing * dielectric matrix)
  average eigenvalue GAMMA=   0.7609
  1.1606  0.3611

 Free energy of the ion-electron system (eV)
  ---------------------------------------------------
  alpha Z        PSCENC =       529.78975023
  Ewald energy   TEWEN  =     73073.32194828
  -Hartree energ DENC   =    -92192.22754466
  -exchange      EXHF   =         0.00000000
  -V(xc)+E(xc)   XCENC  =     -3021.72959183
  PAW double counting   =     24077.75054293   -20003.63767908
  entropy T*S    EENTRO =        -0.00858595
  eigenvalues    EBANDS =     -4000.64221009
  atomic energy  EATOM  =     20990.72652202
  Solvation  Ediel_sol  =         0.00000000
  ---------------------------------------------------
  free energy    TOTEN  =      -546.65684815 eV

  energy without entropy =     -546.64826220  energy(sigma->0) =     -546.65470166


--------------------------------------------------------------------------------------------------------




----------------------------------------- Iteration    1(   8)  ---------------------------------------


    POTLOK:  cpu time    0.0484: real time    0.0484
    SETDIJ:  cpu time    0.0060: real time    0.0060
    EDDIAG:  cpu time    0.7973: real time    0.8046
  RMM-DIIS:  cpu time    8.3212: real time    8.3212
    ORTHCH:  cpu time    0.2163: real time    0.2270
       DOS:  cpu time    0.0013: real time    0.0013
    CHARGE:  cpu time    0.1980: real time    0.1980
    MIXING:  cpu time    0.0019: real time    0.0019
    --------------------------------------------
      LOOP:  cpu time    9.5920: real time    9.6128

 eigenvalue-minimisations  :  3322
 total energy-change (2. order) :-0.1677484E+02  (-0.1560355E+02)
 number of electron     356.0000025 magnetization 
 augmentation part       49.4860292 magnetization 

 Broyden mixing:
  rms(total) = 0.26131E+01    rms(broyden)= 0.26131E+01
  rms(prec ) = 0.47966E+01
  weight for this iteration     100.00

 eigenvalues of (default mixing * dielectric matrix)
  average eigenvalue GAMMA=   0.6778
  1.3485  0.3586  0.3264

 Free energy of the ion-electron system (eV)
  ---------------------------------------------------
  alpha Z        PSCENC =       529.78975023
  Ewald energy   TEWEN  =     73073.32194828
  -Hartree energ DENC   =    -92254.85026595
  -exchange      EXHF   =         0.00000000
  -V(xc)+E(xc)   XCENC  =     -3019.75013807
  PAW double counting   =     25000.21109824   -20926.73424910
  entropy T*S    EENTRO =         0.00383399
  eigenvalues    EBANDS =     -3956.15019269
  atomic energy  EATOM  =     20990.72652202
  Solvation  Ediel_sol  =         0.00000000
  ---------------------------------------------------
  free energy    TOTEN  =      -563.43169305 eV

  energy without entropy =     -563.43552704  energy(sigma->0) =     -563.43265155


--------------------------------------------------------------------------------------------------------




----------------------------------------- Iteration    1(   9)  ---------------------------------------


    POTLOK:  cpu time    0.0485: real time    0.0485
    SETDIJ:  cpu time    0.0060: real time    0.0060
    EDDIAG:  cpu time    0.8116: real time    0.8163
  RMM-DIIS:  cpu time    8.9405: real time    8.9405
    ORTHCH:  cpu time    0.2220: real time    0.2260
       DOS:  cpu time    0.0015: real time    0.0015
    CHARGE:  cpu time    0.1982: real time    0.1982
    MIXING:  cpu time    0.0020: real time    0.0020
    --------------------------------------------
      LOOP:  cpu time   10.2321: real time   10.2433

 eigenvalue-minimisations  :  3583
 total energy-change (2. order) : 0.2425602E+02  (-0.6189894E+01)
 number of electron     356.0000025 magnetization 
 augmentation part       49.0195574 magnetization 

 Broyden mixing:
  rms(total) = 0.18181E+01    rms(broyden)= 0.18181E+01
  rms(prec ) = 0.28192E+01
  weight for this iteration     100.00

 eigenvalues of (default mixing * dielectric matrix)
  average eigenvalue GAMMA=   0.6354
  1.5477  0.4174  0.4174  0.1590

 Free energy of the ion-electron system (eV)
  ---------------------------------------------------
  alpha Z        PSCENC =       529.78975023
  Ewald energy   TEWEN  =     73073.32194828
  -Hartree energ DENC   =    -92295.91986611
  -exchange      EXHF   =         0.00000000
  -V(xc)+E(xc)   XCENC  =     -3017.94414533
  PAW double counting   =     25399.99216505   -21324.29065594
  entropy T*S    EENTRO =        -0.00055500
  eigenvalues    EBANDS =     -3894.85083792
  atomic energy  EATOM  =     20990.72652202
  Solvation  Ediel_sol  =         0.00000000
  ---------------------------------------------------
  free energy    TOTEN  =      -539.17567472 eV

  energy without entropy =     -539.17511971  energy(sigma->0) =     -539.17553596


--------------------------------------------------------------------------------------------------------




----------------------------------------- Iteration    1(  10)  ---------------------------------------


    POTLOK:  cpu time    0.0485: real time    0.0485
    SETDIJ:  cpu time    0.0059: real time    0.0059
    EDDIAG:  cpu time    0.8036: real time    0.8125
  RMM-DIIS:  cpu time    8.1443: real time    8.1443
    ORTHCH:  cpu time    0.2210: real time    0.2262
       DOS:  cpu time    0.0014: real time    0.0014
    CHARGE:  cpu time    0.1981: real time    0.1981
    MIXING:  cpu time    0.0023: real time    0.0023
    --------------------------------------------
      LOOP:  cpu time    9.4270: real time    9.4436

 eigenvalue-minimisations  :  3262
 total energy-change (2. order) : 0.1160907E+02  (-0.2678001E+01)
 number of electron     356.0000027 magnetization 
 augmentation part       49.5678843 magnetization 

 Broyden mixing:
  rms(total) = 0.93966E+00    rms(broyden)= 0.93966E+00
  rms(prec ) = 0.10864E+01
  weight for this iteration     100.00

 eigenvalues of (default mixing * dielectric matrix)
  average eigenvalue GAMMA=   0.6356
  1.5869  0.5577  0.5577  0.3233  0.1525

 Free energy of the ion-electron system (eV)
  ---------------------------------------------------
  alpha Z        PSCENC =       529.78975023
  Ewald energy   TEWEN  =     73073.32194828
  -Hartree energ DENC   =    -92361.82668806
  -exchange      EXHF   =         0.00000000
  -V(xc)+E(xc)   XCENC  =     -3014.84609365
  PAW double counting   =     25971.04931291   -21891.15347477
  entropy T*S    EENTRO =         0.01053217
  eigenvalues    EBANDS =     -3824.63841196
  atomic energy  EATOM  =     20990.72652202
  Solvation  Ediel_sol  =         0.00000000
  ---------------------------------------------------
  free energy    TOTEN  =      -527.56660283 eV

  energy without entropy =     -527.57713500  energy(sigma->0) =     -527.56923587


--------------------------------------------------------------------------------------------------------




----------------------------------------- Iteration    1(  11)  ---------------------------------------


    POTLOK:  cpu time    0.0487: real time    0.0487
    SETDIJ:  cpu time    0.0060: real time    0.0060
    EDDIAG:  cpu time    0.8084: real time    0.8135
  RMM-DIIS:  cpu time    8.5486: real time    8.5487
    ORTHCH:  cpu time    0.2243: real time    0.2270
       DOS:  cpu time    0.0014: real time    0.0014
    CHARGE:  cpu time    0.1980: real time    0.1980
    MIXING:  cpu time    0.0023: real time    0.0023
    --------------------------------------------
      LOOP:  cpu time    9.8396: real time    9.8498

 eigenvalue-minimisations  :  3403
 total energy-change (2. order) : 0.3481424E+00  (-0.1558877E+01)
 number of electron     356.0000026 magnetization 
 augmentation part       50.7394300 magnetization 

 Broyden mixing:
  rms(total) = 0.74164E+00    rms(broyden)= 0.74164E+00
  rms(prec ) = 0.90231E+00
  weight for this iteration     100.00

 eigenvalues of (default mixing * dielectric matrix)
  average eigenvalue GAMMA=   0.6423
  1.5747  0.7544  0.7544  0.3111  0.3111  0.1484

 Free energy of the ion-electron system (eV)
  ---------------------------------------------------
  alpha Z        PSCENC =       529.78975023
  Ewald energy   TEWEN  =     73073.32194828
  -Hartree energ DENC   =    -92367.40902543
  -exchange      EXHF   =         0.00000000
  -V(xc)+E(xc)   XCENC  =     -3013.23883441
  PAW double counting   =     26237.98189225   -22154.26979599
  entropy T*S    EENTRO =        -0.00380757
  eigenvalues    EBANDS =     -3824.11710976
  atomic energy  EATOM  =     20990.72652202
  Solvation  Ediel_sol  =         0.00000000
  ---------------------------------------------------
  free energy    TOTEN  =      -527.21846039 eV

  energy without entropy =     -527.21465282  energy(sigma->0) =     -527.21750849


--------------------------------------------------------------------------------------------------------




----------------------------------------- Iteration    1(  12)  ---------------------------------------


    POTLOK:  cpu time    0.0487: real time    0.0487
    SETDIJ:  cpu time    0.0061: real time    0.0061
    EDDIAG:  cpu time    0.8069: real time    0.8124
  RMM-DIIS:  cpu time    8.7169: real time    8.7170
    ORTHCH:  cpu time    0.2243: real time    0.2272
       DOS:  cpu time    0.0015: real time    0.0015
    CHARGE:  cpu time    0.2001: real time    0.2001
    MIXING:  cpu time    0.0024: real time    0.0024
    --------------------------------------------
      LOOP:  cpu time   10.0086: real time   10.0195

 eigenvalue-minimisations  :  3485
 total energy-change (2. order) : 0.4289819E+00  (-0.7406986E+00)
 number of electron     356.0000026 magnetization 
 augmentation part       50.8244005 magnetization 

 Broyden mixing:
  rms(total) = 0.54734E+00    rms(broyden)= 0.54734E+00
  rms(prec ) = 0.73891E+00
  weight for this iteration     100.00

 eigenvalues of (default mixing * dielectric matrix)
  average eigenvalue GAMMA=   0.6602
  1.6014  1.2348  0.5954  0.3977  0.3977  0.1495  0.2451

 Free energy of the ion-electron system (eV)
  ---------------------------------------------------
  alpha Z        PSCENC =       529.78975023
  Ewald energy   TEWEN  =     73073.32194828
  -Hartree energ DENC   =    -92384.08481979
  -exchange      EXHF   =         0.00000000
  -V(xc)+E(xc)   XCENC  =     -3012.19323873
  PAW double counting   =     26467.38361942   -22380.28111209
  entropy T*S    EENTRO =         0.00062331
  eigenvalues    EBANDS =     -3811.45277109
  atomic energy  EATOM  =     20990.72652202
  Solvation  Ediel_sol  =         0.00000000
  ---------------------------------------------------
  free energy    TOTEN  =      -526.78947845 eV

  energy without entropy =     -526.79010176  energy(sigma->0) =     -526.78963428


--------------------------------------------------------------------------------------------------------




----------------------------------------- Iteration    1(  13)  ---------------------------------------


    POTLOK:  cpu time    0.0491: real time    0.0491
    SETDIJ:  cpu time    0.0059: real time    0.0059
    EDDIAG:  cpu time    0.8108: real time    0.8149
  RMM-DIIS:  cpu time    8.9299: real time    8.9299
    ORTHCH:  cpu time    0.2067: real time    0.2257
       DOS:  cpu time    0.0015: real time    0.0015
    CHARGE:  cpu time    0.1982: real time    0.1982
    MIXING:  cpu time    0.0025: real time    0.0025
    --------------------------------------------
      LOOP:  cpu time   10.2065: real time   10.2320

 eigenvalue-minimisations  :  3569
 total energy-change (2. order) : 0.1605599E+00  (-0.5338408E+00)
 number of electron     356.0000025 magnetization 
 augmentation part       50.9749214 magnetization 

 Broyden mixing:
  rms(total) = 0.48611E+00    rms(broyden)= 0.48611E+00
  rms(prec ) = 0.64218E+00
  weight for this iteration     100.00

 eigenvalues of (default mixing * dielectric matrix)
  average eigenvalue GAMMA=   0.6841
  1.6334  1.6334  0.6100  0.6100  0.3440  0.2925  0.1494  0.2005

 Free energy of the ion-electron system (eV)
  ---------------------------------------------------
[...]
 total augmentation occupancy for first ion, spin component:           1
  3.401  -0.777  -0.027   0.157  -0.017   0.004  -0.024   0.003
 -0.777   0.196   0.016  -0.100   0.008  -0.001   0.009  -0.001
 -0.027   0.016   1.208   0.010  -0.000  -0.071  -0.001  -0.000
  0.157  -0.100   0.010   0.990   0.012  -0.001  -0.054  -0.001
 -0.017   0.008  -0.000   0.012   1.221  -0.000  -0.001  -0.070
  0.004  -0.001  -0.071  -0.001  -0.000   0.004   0.000   0.000
 -0.024   0.009  -0.001  -0.054  -0.001   0.000   0.003   0.000
  0.003  -0.001  -0.000  -0.001  -0.070   0.000   0.000   0.004


------------------------ aborting loop because EDIFF is reached ----------------------------------------


    CHARGE:  cpu time    0.1986: real time    0.1986
    FORLOC:  cpu time    0.0192: real time    0.0192
    FORNL :  cpu time    8.2444: real time    8.2444
    STRESS:  cpu time    7.1034: real time    7.1035
    FORCOR:  cpu time    0.0727: real time    0.0727
    FORHAR:  cpu time    0.0315: real time    0.0315
    MIXING:  cpu time    0.0020: real time    0.0020
    OFIELD:  cpu time    0.0000: real time    0.0000

  FORCE on cell =-STRESS in cart. coord.  units (eV):
  Direction    XX          YY          ZZ          XY          YZ          ZX
  --------------------------------------------------------------------------------------
  Alpha Z   529.78975   529.78975   529.78975
  Ewald   79446.16995 84415.21568-90788.18107  -796.39889   -11.62793   637.36362
  Hartree 83982.16681 88754.35807-80273.46103  -620.00555   -26.67528   614.49331
  E(xc)   -1501.59260 -1503.15918 -1492.60856    -0.11378    -0.83585     0.32823
  Local  ************************167321.17095  1413.21499    40.60310 -1253.47918
  n-local   -60.42537   -66.03116   -97.69727     8.84117    -1.70747     2.47380
  augment   448.36492   449.33828   445.07684    -1.22703     0.41640    -0.06957
  Kinetic  4324.68734  4316.48638  4340.04061    -7.63231     5.27649    -2.33320
  Fock        0.00000     0.00000     0.00000     0.00000     0.00000     0.00000
  -------------------------------------------------------------------------------------
  Total     -34.14093   -30.85224   -15.86978    -3.32141     5.44945    -1.22298
  in kB     -15.01258   -13.56646    -6.97832    -1.46050     2.39625    -0.53777
  external pressure =      -11.85 kB  Pullay stress =        0.00 kB


 VOLUME and BASIS-vectors are now :
 -----------------------------------------------------------------------------
  energy-cutoff  :      600.00
  volume of cell :     3643.60
      direct lattice vectors                 reciprocal lattice vectors
    13.771350861  0.000000000  0.000000000     0.072614518  0.000000000  0.000000000
     0.000000000  9.564481735  0.000000000     0.000000000  0.104553496  0.000000000
     0.000000000  0.000000000 27.662570434     0.000000000  0.000000000  0.036149931

  length of vectors
    13.771350861  9.564481735 27.662570434     0.072614518  0.104553496  0.036149931


 FORCES acting on ions
    electron-ion (+dipol)            ewald-force                    non-local-force                 convergence-correction
 -----------------------------------------------------------------------------------------------
   -.465E+02 -.337E+02 0.380E+03   0.463E+02 0.335E+02 -.379E+03   0.125E+00 0.106E+00 -.797E+00   -.294E-02 -.249E-02 0.381E-02
   -.145E+02 -.359E+02 -.133E+03   0.145E+02 0.358E+02 0.133E+03   0.134E-01 0.186E+00 -.743E-01   -.517E-03 -.274E-02 0.141E-02
   0.366E+02 0.251E+02 -.379E+03   -.361E+02 -.245E+02 0.378E+03   -.448E+00 -.540E+00 0.110E+01   -.372E-03 -.144E-02 0.200E-02
   0.266E+01 0.529E+01 0.196E+03   -.276E+01 -.514E+01 -.195E+03   0.792E-01 -.278E+00 -.682E+00   -.244E-02 -.670E-03 0.910E-02
   -.655E+02 0.475E+01 -.115E+03   0.652E+02 -.430E+01 0.117E+03   0.292E+00 -.450E+00 -.168E+01   0.653E-02 -.270E-03 -.631E-03
   -.467E+02 0.461E+01 0.323E+03   0.460E+02 -.405E+01 -.321E+03   0.656E+00 -.989E+00 -.226E+01   0.931E-02 0.105E-03 0.584E-02
   -.375E+03 -.928E+01 0.454E+03   0.375E+03 0.101E+02 -.456E+03   0.114E+00 -.351E+00 0.883E+00   0.149E-01 -.396E-02 0.371E-01
   -.286E+03 0.230E+02 -.165E+04   0.285E+03 -.219E+02 0.164E+04   0.156E+01 -.111E+01 0.380E+01   0.191E-01 0.224E-01 -.260E-02
   0.103E+03 -.894E+01 0.163E+04   -.103E+03 0.782E+01 -.162E+04   -.556E+00 0.626E+00 -.430E+01   -.238E-01 0.537E-02 0.159E-01
   0.199E+03 -.125E+02 -.412E+03   -.199E+03 0.125E+02 0.414E+03   0.212E+00 -.417E-01 -.132E+01   -.187E-01 0.769E-03 0.377E-02
   -.525E+02 0.137E+03 0.170E+04   0.533E+02 -.136E+03 -.170E+04   -.516E+00 -.387E+00 -.279E+01   -.158E-01 0.156E-01 0.184E-01
   0.929E+02 0.134E+03 -.402E+03   -.921E+02 -.134E+03 0.403E+03   -.789E+00 0.459E-01 -.273E+00   -.338E-02 0.172E-01 0.111E-02
   -.415E+03 0.587E+01 0.724E+03   0.416E+03 -.693E+01 -.723E+03   -.769E+00 0.134E+01 -.160E+01   0.168E-01 0.815E-02 0.247E-01
   -.123E+03 -.415E+02 -.149E+04   0.124E+03 0.411E+02 0.149E+04   -.121E+01 0.404E+00 0.322E+01   0.333E-02 -.678E-02 0.463E-02
   0.298E+03 -.115E+03 0.153E+04   -.298E+03 0.115E+03 -.153E+04   0.263E+00 -.378E+00 -.412E+01   -.388E-01 0.111E-01 0.171E-01
   0.366E+03 -.122E+03 -.447E+03   -.366E+03 0.122E+03 0.447E+03   0.667E-01 0.265E+00 -.809E+00   -.360E-01 0.185E-02 -.993E-02
   -.114E+02 0.165E+01 0.178E+03   0.109E+02 -.162E+01 -.178E+03   0.568E+00 -.236E+00 0.645E-01   -.431E-02 0.533E-04 0.684E-02
   0.309E+01 -.406E+02 -.650E+03   -.316E+01 0.403E+02 0.648E+03   0.691E-01 0.306E+00 0.241E+01   0.481E-02 0.223E-05 -.104E-02
   0.172E+03 -.428E+01 0.164E+03   -.171E+03 0.418E+01 -.165E+03   -.135E+01 0.424E+00 0.492E+00   -.774E-02 0.132E-02 0.467E-02
   0.129E+03 -.172E+02 -.592E+03   -.128E+03 0.175E+02 0.589E+03   -.131E+01 -.306E+00 0.335E+01   -.739E-02 0.102E-02 -.633E-02
   0.127E+03 -.532E+02 -.128E+03   -.127E+03 0.530E+02 0.128E+03   -.189E+00 0.223E+00 0.138E+00   -.593E-02 -.330E-02 -.171E-02
   0.117E+03 -.555E+02 0.469E+03   -.115E+03 0.555E+02 -.466E+03   -.862E+00 -.195E+00 -.270E+01   -.765E-02 0.352E-03 0.627E-02
   -.978E+02 0.616E+02 -.147E+03   0.976E+02 -.613E+02 0.147E+03   0.178E+00 -.296E+00 0.515E+00   0.315E-02 -.967E-03 0.172E-02
   -.100E+03 0.598E+02 0.523E+03   0.994E+02 -.592E+02 -.520E+03   0.458E+00 -.496E+00 -.275E+01   0.517E-02 -.182E-02 0.533E-02
   0.808E+02 -.114E+02 0.160E+03   -.819E+02 0.109E+02 -.160E+03   0.934E+00 0.761E+00 -.517E+00   -.794E-02 0.571E-03 0.557E-02
   0.339E+02 -.407E+02 -.538E+03   -.351E+02 0.405E+02 0.536E+03   0.114E+01 0.210E+00 0.246E+01   -.338E-02 0.167E-03 -.857E-03
   -.126E+03 -.258E+01 -.453E+03   0.125E+03 0.242E+01 0.451E+03   0.100E+00 0.158E+00 0.226E+01   0.500E-02 0.801E-03 0.308E-02
   -.165E+03 0.699E+01 0.190E+03   0.165E+03 -.676E+01 -.191E+03   0.320E+00 -.442E+00 0.352E+00   0.107E-01 -.331E-03 0.128E-01
   -.150E+03 -.586E+01 0.479E+03   0.149E+03 0.580E+01 -.476E+03   0.664E+00 -.622E-01 -.259E+01   0.128E-01 0.389E-02 0.699E-02
   -.201E+03 0.211E+01 -.153E+03   0.200E+03 -.210E+01 0.152E+03   0.636E+00 -.185E-01 0.399E+00   0.717E-02 0.401E-02 0.136E-02
   0.830E+02 0.537E+00 0.172E+03   -.832E+02 -.124E+00 -.172E+03   0.145E-01 -.651E-01 -.673E-01   -.830E-02 -.266E-03 0.826E-02
   0.495E+02 0.342E+02 -.530E+03   -.488E+02 -.339E+02 0.528E+03   -.741E+00 -.300E+00 0.230E+01   -.249E-02 0.607E-03 0.609E-03
   0.655E+02 0.243E+01 -.165E+03   -.659E+02 -.230E+01 0.164E+03   0.389E+00 -.129E+00 0.630E+00   -.773E-02 -.588E-03 -.652E-03
   0.361E+02 -.103E+01 0.502E+03   -.368E+02 0.960E+00 -.499E+03   0.589E+00 0.249E-01 -.249E+01   -.136E-01 -.213E-02 0.443E-02
   0.132E+03 0.826E+01 0.156E+03   -.131E+03 -.853E+01 -.155E+03   -.683E+00 0.672E+00 -.328E+00   -.107E-01 -.134E-02 0.710E-02
   0.107E+03 -.266E+02 -.491E+03   -.106E+03 0.279E+02 0.488E+03   -.692E+00 -.130E+01 0.210E+01   -.510E-02 0.161E-02 -.178E-02
   0.126E+03 0.678E+01 0.175E+03   -.126E+03 -.644E+01 -.175E+03   0.771E-02 -.308E+00 -.451E+00   -.517E-02 -.398E-03 0.478E-02
   0.121E+03 0.697E+01 -.418E+03   -.121E+03 -.695E+01 0.416E+03   0.689E+00 -.226E-01 0.189E+01   -.302E-02 0.178E-03 -.453E-02
   0.126E+03 0.394E+02 0.425E+03   -.126E+03 -.392E+02 -.422E+03   0.144E+00 -.480E+00 -.281E+01   -.545E-02 -.119E-03 0.735E-02
   0.126E+03 0.266E+02 -.138E+03   -.126E+03 -.262E+02 0.139E+03   -.339E+00 -.376E+00 -.723E+00   -.479E-02 0.284E-02 -.330E-02
   -.992E+02 -.862E+00 0.487E+03   0.995E+02 0.840E+00 -.484E+03   -.460E+00 0.632E-01 -.310E+01   0.108E-01 -.284E-02 0.562E-02
   -.151E+03 -.228E+01 -.119E+03   0.150E+03 0.224E+01 0.120E+03   0.318E+00 0.479E-01 -.530E+00   0.805E-02 -.463E-02 0.173E-02
   0.131E+03 0.283E+02 0.453E+03   -.130E+03 -.285E+02 -.451E+03   -.218E+00 0.324E+00 -.250E+01   -.123E-01 -.231E-02 0.683E-02
   0.143E+03 0.336E+02 -.130E+03   -.143E+03 -.333E+02 0.129E+03   -.594E+00 -.276E+00 0.898E+00   -.714E-02 -.350E-03 -.191E-02
   0.643E+02 0.304E+02 -.482E+03   -.649E+02 -.313E+02 0.478E+03   0.560E+00 0.957E+00 0.352E+01   -.726E-02 -.174E-02 -.204E-02
   0.129E+03 -.497E+01 0.197E+03   -.129E+03 0.459E+01 -.198E+03   0.257E+00 0.178E+00 0.532E-01   -.109E-01 0.977E-03 0.411E-02
   0.328E+02 0.286E+01 0.136E+03   -.326E+02 -.290E+01 -.137E+03   -.715E-01 -.161E+00 0.415E+00   0.297E-02 -.170E-02 0.459E-02
   -.539E+02 0.262E+02 -.402E+03   0.521E+02 -.257E+02 0.400E+03   0.176E+01 -.491E+00 0.239E+01   -.899E-03 0.168E-02 -.450E-02
   -.419E+02 -.179E+00 0.440E+03   0.422E+02 0.563E+00 -.437E+03   -.403E-01 -.266E+00 -.279E+01   0.792E-02 -.140E-03 0.614E-02
   -.700E+02 -.110E+01 -.118E+03   0.700E+02 0.728E+00 0.118E+03   -.469E-02 0.371E+00 -.109E+00   0.328E-02 0.667E-03 0.655E-04
   0.505E+02 -.271E+01 0.419E+03   -.505E+02 0.207E+01 -.416E+03   0.232E-01 0.181E+00 -.310E+01   0.402E-02 0.211E-02 0.626E-02
   0.341E+02 -.363E+01 -.141E+03   -.338E+02 0.344E+01 0.142E+03   -.319E+00 0.195E+00 -.584E+00   0.267E-02 -.774E-03 -.147E-02
   -.728E+02 -.358E+01 0.174E+03   0.729E+02 0.386E+01 -.174E+03   0.813E-01 0.115E+00 0.117E+00   0.835E-02 -.900E-03 0.657E-02
   -.619E+02 0.124E+02 -.406E+03   0.624E+02 -.124E+02 0.404E+03   -.502E+00 -.241E-01 0.282E+01   0.278E-02 0.218E-02 -.331E-02
   0.396E+02 0.822E+00 0.435E+03   -.389E+02 -.687E+00 -.431E+03   -.837E+00 -.310E+00 -.319E+01   0.232E-02 -.226E-02 0.765E-02
   0.300E+02 -.528E+00 -.110E+03   -.295E+02 0.613E+00 0.110E+03   -.564E+00 -.849E-01 -.546E+00   -.352E-03 -.279E-03 -.172E-02
   -.972E+02 0.157E+01 0.145E+03   0.968E+02 -.178E+01 -.146E+03   0.380E+00 0.222E+00 0.188E+00   0.731E-02 0.173E-02 0.570E-02
   -.828E+02 -.716E+02 -.422E+03   0.820E+02 0.695E+02 0.420E+03   0.799E+00 0.211E+01 0.243E+01   0.479E-02 -.295E-02 -.253E-02
   0.291E+02 -.506E+01 -.401E+03   -.286E+02 0.538E+01 0.399E+03   -.534E+00 -.317E+00 0.231E+01   0.117E-03 -.273E-02 -.436E-02
   0.488E+02 -.640E+01 0.177E+03   -.482E+02 0.624E+01 -.178E+03   -.593E+00 0.622E+00 -.172E-01   0.181E-02 0.144E-02 0.299E-02
   -.141E+03 -.429E+02 0.518E+03   0.140E+03 0.423E+02 -.515E+03   0.826E+00 0.455E-01 -.321E+01   0.447E-02 0.133E-02 0.331E-02
   -.143E+03 -.428E+02 -.124E+03   0.142E+03 0.423E+02 0.124E+03   0.366E+00 0.502E+00 -.777E+00   0.568E-02 -.107E-03 0.383E-02
   -.158E+03 0.404E+01 0.173E+03   0.157E+03 -.405E+01 -.173E+03   0.696E+00 0.414E+00 0.320E+00   0.102E-01 -.506E-03 0.455E-02
   -.678E+02 0.370E+02 -.427E+03   0.682E+02 -.358E+02 0.425E+03   -.454E+00 -.121E+01 0.228E+01   0.399E-02 -.219E-03 -.263E-02
   0.127E+03 0.386E+02 -.755E+03   -.128E+03 -.388E+02 0.763E+03   0.633E+00 0.261E+00 -.842E+01   -.294E-02 -.171E-02 0.572E-02
   -.784E+02 0.127E+02 -.784E+03   0.777E+02 -.146E+02 0.798E+03   0.645E+00 0.197E+01 -.144E+02   0.880E-02 0.262E-02 -.634E-02
 -----------------------------------------------------------------------------------------------
   -.191E+01 -.169E+01 0.331E+02   0.355E-12 0.355E-14 0.796E-12   0.198E+01 0.164E+01 -.334E+02   -.761E-01 0.589E-01 0.244E+00
 
 
 POSITION                                       TOTAL-FORCE (eV/Angst)
 -----------------------------------------------------------------------------------
      8.57631      8.29685     10.39845        -0.087991     -0.144535      0.008266
      8.56202      3.73267     15.11508        -0.000292      0.002338      0.005080
      8.48893      6.17261     17.34573        -0.006533      0.003146      0.001870
      8.51616      0.79995     12.43874        -0.018037     -0.128186     -0.188555
     13.44627      6.12346     15.33801        -0.000756     -0.001942      0.002403
     13.49094      1.15316     10.44749        -0.026179     -0.434666     -0.073766
     10.03344      3.28428     12.67411        -0.036019      0.444671     -0.610383
      9.99987      8.64743     17.16619        -0.000393     -0.002400     -0.000783
      7.12524      5.81577     10.15765        -0.189912     -0.489393      0.899787
      7.08073      1.26333     14.95283         0.000035      0.000115     -0.001798
      8.51222      3.28036     10.20450         0.267053      0.090260      0.717412
      8.54633      8.37025     14.87742        -0.000760     -0.000246     -0.000189
     10.22263      8.06723     12.77991         0.236759      0.298385     -0.519069
     10.22871      3.88832     17.33270         0.001351      0.002326     -0.001258
      5.42664      8.10481     10.20639         0.291370      0.068009      0.933210
      5.43471      3.53360     15.00154         0.001547     -0.001828     -0.003274
      8.52843      5.75423     12.65640         0.099751     -0.203132     -0.070621
      8.66710      1.54524     17.20902         0.002578     -0.000895     -0.002010
      3.84829      7.97317     12.47259        -0.364955      0.326211     -0.488112
      3.92390      3.64141     17.16796         0.001184     -0.006021      0.001539
      3.86218      5.66185     14.96661         0.000088     -0.001637     -0.001456
      3.90063      0.73891     10.00000         0.495114     -0.135664      0.338446
     10.10975      6.04754     14.96456         0.000112     -0.001973      0.001250
     10.19112      1.10470     10.13736        -0.217033      0.041135      0.368292
      6.82945      7.99424     12.66670        -0.094496      0.272590     -0.344198
      6.86395      3.64395     17.33155         0.000199     -0.000488      0.000126
     11.43869      6.31746     17.30315        -0.001958      0.001755      0.005256
     11.66772      1.05372     12.57547        -0.087674     -0.207937     -0.698191
     11.73919      3.33868     10.41199        -0.293580     -0.115550      0.577366
     11.72422      8.28254     15.23216        -0.002568     -0.008432      0.002994
      7.18522      3.24644     12.75390        -0.173298      0.347472     -0.530136
      7.24690      8.65481     17.25963        -0.001132     -0.002251      0.001872
      6.88984      5.98306     14.93969         0.001482      0.001639     -0.001485
      6.87795      0.97560     10.08695        -0.070567     -0.047983      0.168442
      5.51084      5.55012     12.48419         0.006400      0.399056     -0.198627
      5.37313      1.19461     17.14144         0.001420      0.000852      0.001703
      3.51249      3.50019     12.83519        -0.090908      0.032617     -0.478678
      3.26023      8.70950     17.30874        -0.000528      0.000519     -0.003470
      3.46798      5.87237     10.40868         0.065341     -0.244592     -0.089829
      3.35857      1.27863     15.17199        -0.001607     -0.000298     -0.001980
     11.91771      8.21633     10.24534        -0.145588      0.038122      0.642725
     11.89492      3.66053     15.08276         0.002123      0.000176     -0.003450
      5.24135      3.36543     10.32679         0.162098      0.089452      0.151575
      5.19686      8.34557     15.13089        -0.000564     -0.000578     -0.000586
      5.34648      6.25064     17.41997        -0.002384      0.000193     -0.000148
      5.28930      0.99064     12.60849         0.114269     -0.203165     -0.275747
      1.60538      5.84491     12.85122         0.151630     -0.203065     -0.381368
      1.49411      1.69732     17.65876         0.000820     -0.000946      0.000662
     13.72038      5.67134     10.18293         0.210305      0.118951      0.664360
     13.71614      1.08622     15.09163        -0.000447     -0.002116     -0.000194
      1.63456      8.33987     10.36453        -0.041435     -0.457691      0.154109
      1.56726      3.77051     15.25082        -0.000002     -0.001802      0.002581
     13.76831      3.16119     12.53308         0.136015      0.388068     -0.324083
      0.01978      8.38200     17.26911         0.001390     -0.001216     -0.000056
      1.99440      3.17314     10.17666        -0.105421     -0.177386      0.693371
      1.85460      8.07941     14.93059        -0.000062     -0.000735     -0.001549
     13.48051      8.37930     12.86886        -0.080105      0.012246     -0.412604
     13.30852      4.25032     17.76641        -0.001469     -0.000789      0.000043
      2.05907      6.06091     17.18575         0.000089     -0.001923      0.001452
      2.02729      0.87737     12.46815        -0.018106      0.457910     -0.453166
     10.07171      5.79402     10.14663         0.151291     -0.608503      0.208422
     10.17288      1.23777     14.89419         0.001833     -0.000650     -0.000263
     11.97051      5.66181     12.67660        -0.243356      0.406956     -0.393023
     11.95782      1.46120     17.57795         0.000196     -0.001526      0.002131
      5.26466      8.60508     17.55468         0.001649     -0.000505     -0.003615
     13.57504      2.38856     18.65251         0.000622     -0.002523      0.000973
 -----------------------------------------------------------------------------------
    total drift:                               -0.006271      0.003921     -0.027962


--------------------------------------------------------------------------------------------------------



  FREE ENERGIE OF THE ION-ELECTRON SYSTEM (eV)
  ---------------------------------------------------
  free  energy   TOTEN  =      -526.18819664 eV

  energy  without entropy=     -526.19374869  energy(sigma->0) =     -526.18958465
 
 d Force = 0.2386532E-04[ 0.195E-04, 0.283E-04]  d Energy = 0.4377199E-04-0.199E-04
 d Force = 0.2613891E-01[ 0.261E-01, 0.262E-01]  d Ewald  = 0.2613891E-01 0.130E-08


--------------------------------------------------------------------------------------------------------


    POTLOK:  cpu time    0.0589: real time    0.0589


--------------------------------------------------------------------------------------------------------




--------------------------------------------------------------------------------------------------------


  
 reached required accuracy - stopping structural energy minimisation
     LOOP+:  cpu time   38.8129: real time   38.8636
    4ORBIT:  cpu time    0.0000: real time    0.0000

 total amount of memory used by VASP on root node    76880. kBytes
========================================================================

   base      :      30000. kBytes
   nonl-proj :      13633. kBytes
   fftplans  :       3278. kBytes
   grid      :       7939. kBytes
   one-center:         31. kBytes
   wavefun   :      21999. kBytes
 
  
  
 General timing and accounting informations for this job:
 ========================================================
  
                  Total CPU time used (sec):      432.976
                            User time (sec):      424.668
                          System time (sec):        8.308
                         Elapsed time (sec):      433.691
  
                   Maximum memory used (kb):      154840.
                   Average memory used (kb):           0.
  
                          Minor page faults:        40042
                          Major page faults:            0
                 Voluntary context switches:         3816
