 vasp.5.4.1 05Feb16 (build Mar 19 2020 08:54:17) complex                        
  
 executed on           IFC91_ompi date 2021.11.07  09:55:55
 running on   48 total cores
 distrk:  each k-point on   48 cores,    1 groups
 distr:  one band on NCORES_PER_BAND=  24 cores,    2 groups


--------------------------------------------------------------------------------------------------------


 INCAR:
 POTCAR:    PAW_PBE Al 04Jan2001                  
 POTCAR:    PAW_PBE Nb_sv 25May2007               
 POTCAR:    PAW_PBE Ta 17Jan2003                  
 POTCAR:    PAW_PBE Ti 08Apr2002                  
 POTCAR:   PAW_PBE Zr 08Apr2002                   
 POTCAR:    PAW_PBE O 08Apr2002                   

 ----------------------------------------------------------------------------- 
|                                                                             |
|           W    W    AA    RRRRR   N    N  II  N    N   GGGG   !!!           |
|           W    W   A  A   R    R  NN   N  II  NN   N  G    G  !!!           |
|           W    W  A    A  R    R  N N  N  II  N N  N  G       !!!           |
|           W WW W  AAAAAA  RRRRR   N  N N  II  N  N N  G  GGG   !            |
|           WW  WW  A    A  R   R   N   NN  II  N   NN  G    G                |
|           W    W  A    A  R    R  N    N  II  N    N   GGGG   !!!           |
|                                                                             |
|      For optimal performance we recommend to set                            |
|        NCORE= 4 - approx SQRT( number of cores)                             |
|      NCORE specifies how many cores store one orbital (NPAR=cpu/NCORE).     |
|      This setting can  greatly improve the performance of VASP for DFT.     |
|      The default, NPAR=number of cores might be grossly inefficient         |
|      on modern multi-core architectures or massively parallel machines.     |
|      Do your own testing !!!!                                               |
|      Unfortunately you need to use the default for GW and RPA calculations. |
|      (for HF NCORE is supported but not extensively tested yet)             |
|                                                                             |
 ----------------------------------------------------------------------------- 

 POTCAR:    PAW_PBE Al 04Jan2001                  
   VRHFIN =Al: s2p1                                                             
   LEXCH  = PE                                                                  
   EATOM  =    53.5387 eV,    3.9350 Ry                                         
                                                                                
   TITEL  = PAW_PBE Al 04Jan2001                                                
   LULTRA =        F    use ultrasoft PP ?                                      
   IUNSCR =        1    unscreen: 0-lin 1-nonlin 2-no                           
   RPACOR =    1.500    partial core radius                                     
   POMASS =   26.981; ZVAL   =    3.000    mass and valenz                      
   RCORE  =    1.900    outmost cutoff radius                                   
   RWIGS  =    2.650; RWIGS  =    1.402    wigner-seitz radius (au A)           
   ENMAX  =  240.300; ENMIN  =  180.225 eV                                      
   ICORE  =        2    local potential                                         
   LCOR   =        T    correct aug charges                                     
   LPAW   =        T    paw PP                                                  
   EAUG   =  291.052                                                            
   DEXC   =    0.000                                                            
   RMAX   =    1.939    core radius for proj-oper                               
   RAUG   =    1.300    factor for augmentation sphere                          
   RDEP   =    1.966    radius for radial grids                                 
   RDEPT  =    1.856    core radius for aug-charge                              
                                                                                
   Atomic configuration                                                         
    6 entries                                                                   
     n  l   j            E        occ.                                          
     1  0  0.50     -1511.1048   2.0000                                         
     2  0  0.50      -108.1629   2.0000                                         
     2  1  1.50       -69.6402   6.0000                                         
     3  0  0.50        -7.7528   2.0000                                         
     3  1  1.50        -2.7121   1.0000                                         
     3  2  2.50        -2.7212   0.0000                                         
   Description                                                                  
     l       E           TYP  RCUT    TYP  RCUT                                 
     0     -7.7528455     23  1.900                                             
     0     -3.3096929     23  1.900                                             
     1     -2.7120682     23  1.900                                             
     1     13.6058260     23  1.900                                             
     2     -2.7211652      7  1.900                                             
  local pseudopotential read in
  partial core-charges read in
  partial kinetic energy density read in
  atomic valenz-charges read in
  non local Contribution for L=           0  read in
    real space projection operators read in
  non local Contribution for L=           0  read in
    real space projection operators read in
  non local Contribution for L=           1  read in
    real space projection operators read in
  non local Contribution for L=           1  read in
    real space projection operators read in
    PAW grid and wavefunctions read in
 
   number of l-projection  operators is LMAX  =           4
   number of lm-projection operators is LMMAX =           8
 
 POTCAR:    PAW_PBE Nb_sv 25May2007               
   VRHFIN =Nb: 4p5s4d                                                           
   LEXCH  = PE                                                                  
   EATOM  =  1555.1913 eV,  114.3033 Ry                                         
                                                                                
   TITEL  = PAW_PBE Nb_sv 25May2007                                             
   LULTRA =        F    use ultrasoft PP ?                                      
   IUNSCR =        1    unscreen: 0-lin 1-nonlin 2-no                           
   RPACOR =    1.800    partial core radius                                     
   POMASS =   92.910; ZVAL   =   13.000    mass and valenz                      
   RCORE  =    2.400    outmost cutoff radius                                   
   RWIGS  =    2.400; RWIGS  =    1.270    wigner-seitz radius (au A)           
   ENMAX  =  293.235; ENMIN  =  219.927 eV                                      
   ICORE  =        3    local potential                                         
   LCOR   =        T    correct aug charges                                     
   LPAW   =        T    paw PP                                                  
   EAUG   =  455.659                                                            
   DEXC   =    0.000                                                            
   RMAX   =    2.456    core radius for proj-oper                               
   RAUG   =    1.300    factor for augmentation sphere                          
   RDEP   =    2.451    radius for radial grids                                 
   RDEPT  =    1.956    core radius for aug-charge                              
                                                                                
   Atomic configuration                                                         
   11 entries                                                                   
     n  l   j            E        occ.                                          
     1  0  0.50    -18805.2457   2.0000                                         
     2  0  0.50     -2630.2869   2.0000                                         
     2  1  1.50     -2348.4046   6.0000                                         
     3  0  0.50      -438.8757   2.0000                                         
     3  1  1.50      -346.7588   6.0000                                         
     3  2  2.50      -196.2560  10.0000                                         
     4  0  0.50       -58.3859   2.0000                                         
     5  0  0.50        -3.9816   1.0000                                         
     4  1  1.50       -34.5141   6.0000                                         
     4  2  2.50        -3.0408   4.0000                                         
     4  3  2.50        -1.3606   0.0000                                         
   Description                                                                  
     l       E           TYP  RCUT    TYP  RCUT                                 
     0    -58.3859094     23  2.200                                             
     0     -3.9816262     23  2.200                                             
     1    -34.5140738     23  2.200                                             
     1     13.6058260     23  2.200                                             
     2     -3.0408010     23  2.200                                             
     2     -0.1283038     23  2.200                                             
     3     -1.3605826     23  2.400                                             
  local pseudopotential read in
  partial core-charges read in
  partial kinetic energy density read in
  atomic valenz-charges read in
  non local Contribution for L=           0  read in
    real space projection operators read in
  non local Contribution for L=           0  read in
    real space projection operators read in
  non local Contribution for L=           1  read in
    real space projection operators read in
  non local Contribution for L=           1  read in
    real space projection operators read in
  non local Contribution for L=           2  read in
    real space projection operators read in
  non local Contribution for L=           2  read in
    real space projection operators read in
    PAW grid and wavefunctions read in
 
   number of l-projection  operators is LMAX  =           6
   number of lm-projection operators is LMMAX =          18
 
 POTCAR:    PAW_PBE Ta 17Jan2003                  
   VRHFIN =Ta:  6s5d                                                            
   LEXCH  = PE                                                                  
   EATOM  =   130.6506 eV,    9.6025 Ry                                         
                                                                                
   TITEL  = PAW_PBE Ta 17Jan2003                                                
   LULTRA =        F    use ultrasoft PP ?                                      
   IUNSCR =        1    unscreen: 0-lin 1-nonlin 2-no                           
   RPACOR =    2.330    partial core radius                                     
   POMASS =  180.948; ZVAL   =    5.000    mass and valenz                      
   RCORE  =    2.900    outmost cutoff radius                                   
   RWIGS  =    2.840; RWIGS  =    1.503    wigner-seitz radius (au A)           
   ENMAX  =  223.667; ENMIN  =  167.750 eV                                      
   RCLOC  =    2.205    cutoff for local pot                                    
   LCOR   =        T    correct aug charges                                     
   LPAW   =        T    paw PP                                                  
   EAUG   =  332.075                                                            
   DEXC   =    0.000                                                            
   RMAX   =    2.970    core radius for proj-oper                               
   RAUG   =    1.300    factor for augmentation sphere                          
   RDEP   =    3.060    radius for radial grids                                 
   RDEPT  =    2.354    core radius for aug-charge                              
                                                                                
   Atomic configuration                                                         
   16 entries                                                                   
     n  l   j            E        occ.                                          
     1  0  0.50    -67341.2807   2.0000                                         
     2  0  0.50    -11566.9376   2.0000                                         
     2  1  1.50    -10134.1182   6.0000                                         
     3  0  0.50     -2648.5620   2.0000                                         
     3  1  1.50     -2222.6012   6.0000                                         
     3  2  2.50     -1726.3120  10.0000                                         
     4  0  0.50      -538.6961   2.0000                                         
     4  1  1.50      -399.0129   6.0000                                         
     4  2  2.50      -220.3959  10.0000                                         
     4  3  3.50       -23.0374  14.0000                                         
     5  0  0.50       -71.2901   2.0000                                         
     5  1  1.50       -37.8225   6.0000                                         
     5  2  2.50        -2.6455   4.0000                                         
     6  0  0.50        -4.9623   1.0000                                         
     6  1  1.50        -1.3606   0.0000                                         
     5  3  2.50        -1.3606   0.0000                                         
   Description                                                                  
     l       E           TYP  RCUT    TYP  RCUT                                 
     2     -2.6455043     23  2.500                                             
     2     -0.6258895     23  2.500                                             
     0     -4.9622780     23  2.500                                             
     0      4.7531321     23  2.500                                             
     1     -1.3605826     23  2.900                                             
     1     27.2116520     23  2.900                                             
  local pseudopotential read in
  partial core-charges read in
  partial kinetic energy density read in
  atomic valenz-charges read in
  non local Contribution for L=           2  read in
    real space projection operators read in
  non local Contribution for L=           2  read in
    real space projection operators read in
  non local Contribution for L=           0  read in
    real space projection operators read in
  non local Contribution for L=           0  read in
    real space projection operators read in
  non local Contribution for L=           1  read in
    real space projection operators read in
  non local Contribution for L=           1  read in
    real space projection operators read in
    PAW grid and wavefunctions read in
 
   number of l-projection  operators is LMAX  =           6
   number of lm-projection operators is LMMAX =          18
 
 POTCAR:    PAW_PBE Ti 08Apr2002                  
   VRHFIN =Ti: d3 s1                                                            
   LEXCH  = PE                                                                  
   EATOM  =    94.7928 eV,    6.9671 Ry                                         
                                                                                
   TITEL  = PAW_PBE Ti 08Apr2002                                                
   LULTRA =        F    use ultrasoft PP ?                                      
   IUNSCR =        1    unscreen: 0-lin 1-nonlin 2-no                           
   RPACOR =    2.200    partial core radius                                     
   POMASS =   47.880; ZVAL   =    4.000    mass and valenz                      
   RCORE  =    2.800    outmost cutoff radius                                   
   RWIGS  =    2.500; RWIGS  =    1.323    wigner-seitz radius (au A)           
   ENMAX  =  178.330; ENMIN  =  133.747 eV                                      
   RCLOC  =    2.215    cutoff for local pot                                    
   LCOR   =        T    correct aug charges                                     
   LPAW   =        T    paw PP                                                  
   EAUG   =  328.883                                                            
   DEXC   =    0.000                                                            
   RMAX   =    2.868    core radius for proj-oper                               
   RAUG   =    1.300    factor for augmentation sphere                          
   RDEP   =    2.885    radius for radial grids                                 
   RDEPT  =    2.320    core radius for aug-charge                              
                                                                                
   Atomic configuration                                                         
    9 entries                                                                   
     n  l   j            E        occ.                                          
     1  0  0.50     -4865.3608   2.0000                                         
     2  0  0.50      -533.1367   2.0000                                         
     2  1  1.50      -440.5031   6.0000                                         
     3  0  0.50       -59.3186   2.0000                                         
     3  1  1.50       -35.7012   6.0000                                         
     3  2  2.50        -1.9157   3.0000                                         
     4  0  0.50        -3.7291   1.0000                                         
     4  1  1.50        -4.0817   0.0000                                         
     4  3  2.50        -1.3606   0.0000                                         
   Description                                                                  
     l       E           TYP  RCUT    TYP  RCUT                                 
     2     -1.9156924     23  2.800                                             
     2     -0.4062961     23  2.800                                             
     0     -3.7290832     23  2.800                                             
     0     20.4087390     23  2.800                                             
     1     -5.4423304     23  2.800                                             
  local pseudopotential read in
  partial core-charges read in
  partial kinetic energy density read in
  atomic valenz-charges read in
  non local Contribution for L=           2  read in
    real space projection operators read in
  non local Contribution for L=           2  read in
    real space projection operators read in
  non local Contribution for L=           0  read in
    real space projection operators read in
  non local Contribution for L=           0  read in
    real space projection operators read in
  non local Contribution for L=           1  read in
    real space projection operators read in
    PAW grid and wavefunctions read in
 
   number of l-projection  operators is LMAX  =           5
   number of lm-projection operators is LMMAX =          15
 
 POTCAR:   PAW_PBE Zr 08Apr2002                   
   VRHFIN =Zr: 5s4d5p                                                           
   LEXCH  = PE                                                                  
   EATOM  =    77.8472 eV,    5.7216 Ry                                         
                                                                                
   TITEL  = PAW_PBE Zr 08Apr2002                                                
   LULTRA =        F    use ultrasoft PP ?                                      
   IUNSCR =        1    unscreen: 0-lin 1-nonlin 2-no                           
   RPACOR =    2.200    partial core radius                                     
   POMASS =   91.224; ZVAL   =    4.000    mass and valenz                      
   RCORE  =    3.000    outmost cutoff radius                                   
   RWIGS  =    3.070; RWIGS  =    1.625    wigner-seitz radius (au A)           
   ENMAX  =  154.632; ENMIN  =  115.974 eV                                      
   RCLOC  =    2.213    cutoff for local pot                                    
   LCOR   =        T    correct aug charges                                     
   LPAW   =        T    paw PP                                                  
   EAUG   =  243.217                                                            
   DEXC   =    -.082                                                            
   RMAX   =    3.708    core radius for proj-oper                               
   RAUG   =    1.300    factor for augmentation sphere                          
   RDEP   =    3.146    radius for radial grids                                 
   QCUT   =   -3.371; QGAM   =    6.742    optimization parameters              
                                                                                
   Description                                                                  
     l     E      TYP  RCUT    TYP  RCUT                                        
     2   .000     23  3.000                                                     
     2   .000     23  3.000                                                     
     0   .000     23  3.000                                                     
     0  2.000     23  3.000                                                     
     1  -.400     23  3.000                                                     
     3   .000      7   .000                                                     
  local pseudopotential read in
  partial core-charges read in
  atomic valenz-charges read in
  non local Contribution for L=           2  read in
    real space projection operators read in
  non local Contribution for L=           2  read in
    real space projection operators read in
  non local Contribution for L=           0  read in
    real space projection operators read in
  non local Contribution for L=           0  read in
    real space projection operators read in
  non local Contribution for L=           1  read in
    real space projection operators read in
    PAW grid and wavefunctions read in
 
   number of l-projection  operators is LMAX  =           5
   number of lm-projection operators is LMMAX =          15
 
 POTCAR:    PAW_PBE O 08Apr2002                   
   VRHFIN =O: s2p4                                                              
   LEXCH  = PE                                                                  
   EATOM  =   432.3788 eV,   31.7789 Ry                                         
                                                                                
   TITEL  = PAW_PBE O 08Apr2002                                                 
   LULTRA =        F    use ultrasoft PP ?                                      
   IUNSCR =        1    unscreen: 0-lin 1-nonlin 2-no                           
   RPACOR =    1.200    partial core radius                                     
   POMASS =   16.000; ZVAL   =    6.000    mass and valenz                      
   RCORE  =    1.520    outmost cutoff radius                                   
   RWIGS  =    1.550; RWIGS  =    0.820    wigner-seitz radius (au A)           
   ENMAX  =  400.000; ENMIN  =  300.000 eV                                      
   ICORE  =        2    local potential                                         
   LCOR   =        T    correct aug charges                                     
   LPAW   =        T    paw PP                                                  
   EAUG   =  605.392                                                            
   DEXC   =    0.000                                                            
   RMAX   =    1.553    core radius for proj-oper                               
   RAUG   =    1.300    factor for augmentation sphere                          
   RDEP   =    1.550    radius for radial grids                                 
   RDEPT  =    1.329    core radius for aug-charge                              
                                                                                
   Atomic configuration                                                         
    4 entries                                                                   
     n  l   j            E        occ.                                          
     1  0  0.50      -514.6923   2.0000                                         
     2  0  0.50       -23.9615   2.0000                                         
     2  1  0.50        -9.0305   4.0000                                         
     3  2  1.50        -9.5241   0.0000                                         
   Description                                                                  
     l       E           TYP  RCUT    TYP  RCUT                                 
     0    -23.9615318     23  1.200                                             
     0     -9.5240782     23  1.200                                             
     1     -9.0304911     23  1.520                                             
     1      8.1634956     23  1.520                                             
     2     -9.5240782      7  1.500                                             
  local pseudopotential read in
  partial core-charges read in
  partial kinetic energy density read in
  kinetic energy density of atom read in
  atomic valenz-charges read in
  non local Contribution for L=           0  read in
    real space projection operators read in
  non local Contribution for L=           0  read in
    real space projection operators read in
  non local Contribution for L=           1  read in
    real space projection operators read in
  non local Contribution for L=           1  read in
    real space projection operators read in
    PAW grid and wavefunctions read in
 
   number of l-projection  operators is LMAX  =           4
   number of lm-projection operators is LMMAX =           8
 

 ----------------------------------------------------------------------------- 
|                                                                             |
|  ADVICE TO THIS USER RUNNING 'VASP/VAMP'   (HEAR YOUR MASTER'S VOICE ...):  |
|                                                                             |
|      You have a (more or less) 'large supercell' and for larger cells       |
|      it might be more efficient to use real space projection opertators     |
|      So try LREAL= Auto  in the INCAR   file.                               |
|      Mind: At the moment your POTCAR file does not contain real space       |
|       projectors, and has to be modified,  BUT if you                       |
|      want to do an extremely  accurate calculation you might also keep the  |
|      reciprocal projection scheme          (i.e. LREAL=.FALSE.)             |
|                                                                             |
 ----------------------------------------------------------------------------- 

 WARNING: PSMAXN for non-local potential too small
          PSMAXN should be >   12.5490833729506       NTYP=           5
  PAW_PBE Al 04Jan2001                  :
 energy of atom  1       EATOM=  -53.5387
 kinetic energy error for atom=    0.0002 (will be added to EATOM!!)
  PAW_PBE Nb_sv 25May2007               :
 energy of atom  2       EATOM=-1555.1913
 kinetic energy error for atom=    0.0037 (will be added to EATOM!!)
  PAW_PBE Ta 17Jan2003                  :
 energy of atom  3       EATOM= -130.6506
 kinetic energy error for atom=    0.0004 (will be added to EATOM!!)
  PAW_PBE Ti 08Apr2002                  :
 energy of atom  4       EATOM=  -94.7928
 kinetic energy error for atom=    0.0001 (will be added to EATOM!!)
 PAW_PBE Zr 08Apr2002                   :
 energy of atom  5       EATOM=  -77.8472
 kinetic energy error for atom=    0.0001 (will be added to EATOM!!)
  PAW_PBE O 08Apr2002                   :
 energy of atom  6       EATOM= -432.3788
 kinetic energy error for atom=    0.0168 (will be added to EATOM!!)
 
 
 POSCAR: Al Nb Ta Ti Zr                          
  positions in direct lattice
  velocities in cartesian coordinates
 exchange correlation table for  LEXCH =        8
   RHO(1)=    0.500       N(1)  =     2000
   RHO(2)=  100.500       N(2)  =     4000
 


--------------------------------------------------------------------------------------------------------


 ion  position               nearest neighbor table
   1  0.623  0.867  0.376-  34 2.83  25 2.88  24 2.88   9 2.88  13 2.90   4 2.91  61 2.93  15 3.16
                            41 3.35  17 3.40
   2  0.622  0.373  0.544-  86 1.89  31 2.69   7 2.81  33 2.81  23 2.81  62 2.83  10 2.84  26 2.95
                            16 3.01  14 3.19  17 3.24  42 3.29  18 3.39
   3  0.590  0.641  0.639-  75 1.76  79 1.82  78 1.82  86 1.84  85 2.04  32 2.72   8 2.77  26 2.84
                            23 2.95  45 3.00  33 3.10
   4  0.618  0.084  0.450-  31 2.80  24 2.86  34 2.87  13 2.88   1 2.91  25 2.92   7 2.92  62 3.02
                            10 3.10  28 3.16  46 3.24
   5  0.973  0.642  0.547-  82 2.08  30 2.66  27 2.78  63 2.88  42 2.89  52 2.96  56 3.03  47 3.03
                            57 3.18  59 3.28  54 3.51
   6  0.980  0.121  0.378-  29 2.80  28 2.80  53 2.91  41 2.96  51 3.05  55 3.05  60 3.08  57 3.37

   7  0.729  0.343  0.458-  28 2.77   2 2.81  29 2.83  31 2.85  17 2.89  11 2.90   4 2.92  63 3.07
                            62 3.15  42 3.19
   8  0.724  0.857  0.638-  77 2.04  71 2.05  78 2.06  79 2.13   3 2.77  27 2.79  12 2.88  32 2.89
                            18 2.96  30 2.96  64 3.24
   9  0.517  0.608  0.367-  35 2.84  15 2.85  17 2.87   1 2.88  11 2.89  61 2.95  43 3.10
  10  0.512  0.122  0.548-  16 2.70  12 2.83   2 2.84  36 2.88  18 2.91  62 3.03  44 3.05  46 3.10
                             4 3.10
  11  0.618  0.343  0.369-  24 2.75  34 2.83  31 2.87   9 2.89   7 2.90  61 2.96  43 3.27
  12  0.619  0.869  0.548-  85 2.33  23 2.78  10 2.83  62 2.88   8 2.88  13 2.94  32 3.02  25 3.04
                            33 3.04  44 3.29
  13  0.742  0.843  0.462-  17 2.87   4 2.88   1 2.90  30 2.91  28 2.94  12 2.94  63 2.98  41 3.05
                            57 3.27
  14  0.753  0.398  0.639-  76 1.99  74 2.02  79 2.30  42 2.82  27 2.91  64 2.97  58 3.01  18 3.04
                             2 3.19
  15  0.394  0.847  0.369-  22 2.68  19 2.76  25 2.83  34 2.84   9 2.85  39 2.98   1 3.16  46 3.43

  16  0.404  0.356  0.541-  84 2.13  10 2.70  33 2.71  31 2.75  26 2.75  21 2.78  20 2.91  37 2.96
                            40 2.96   2 3.01  46 3.39
  17  0.619  0.602  0.458-  33 2.78  25 2.81  31 2.85   9 2.87  13 2.87   7 2.89  61 2.95  35 3.03
                            23 3.13   2 3.24   1 3.40  63 3.44
  18  0.630  0.134  0.635-  74 2.04  72 2.06  71 2.09  32 2.70  10 2.91  62 2.91   8 2.96  26 3.01
                            14 3.04  36 3.19  64 3.21   2 3.39
  19  0.279  0.834  0.451-  15 2.76  35 2.94  46 2.96  39 2.97  25 2.99  44 3.05  60 3.07  51 3.08
                            47 3.12  56 3.28
  20  0.272  0.367  0.623-  69 2.03  70 2.04  67 2.21  84 2.28  16 2.91  36 2.96  59 3.02  21 3.06
                            26 3.07  40 3.07  48 3.10  52 3.13  45 3.13
  21  0.276  0.582  0.541-  84 2.08  80 2.11  82 2.14  16 2.78  37 2.98  45 3.00  35 3.01  20 3.06
                            33 3.06  47 3.07  44 3.08  59 3.08  52 3.12  56 3.21
  22  0.283  0.077  0.361-  15 2.68  46 2.97  43 2.97  34 2.99  51 3.02  55 3.10  60 3.10
  23  0.726  0.623  0.557-  79 2.16  86 2.21  12 2.78   2 2.81  30 2.84  27 2.89  42 2.91   3 2.95
                            17 3.13  63 3.39
  24  0.740  0.115  0.366-  29 2.73  11 2.75  28 2.85   4 2.86   1 2.88  41 3.00
  25  0.496  0.836  0.458-  35 2.78  17 2.81  15 2.83   1 2.88   4 2.92  44 2.98  19 2.99  46 2.99
                            12 3.04  33 3.13
  26  0.494  0.380  0.629-  70 1.93  74 1.99  75 2.01  86 2.26  16 2.75  36 2.82   3 2.84   2 2.95
                            18 3.01  20 3.07  45 3.15
  27  0.869  0.652  0.633-  79 2.03  76 2.04  68 2.06  77 2.08  58 2.72   5 2.78   8 2.79  23 2.89
                            14 2.91  54 2.98  30 2.99  42 3.38
  28  0.847  0.110  0.455-   7 2.77   6 2.80  24 2.85  57 2.90  62 2.91  13 2.94  53 2.98  50 3.12
                            29 3.15   4 3.16  41 3.36
  29  0.852  0.349  0.376-  24 2.73   6 2.80   7 2.83  53 2.94  61 2.98  49 3.07  28 3.15  63 3.25

  30  0.852  0.858  0.552-  83 2.01  77 2.40   5 2.66  23 2.84  13 2.91   8 2.96  57 2.97  27 2.99
                            62 3.03  50 3.11  54 3.51
  31  0.522  0.339  0.461-   2 2.69  16 2.75   4 2.80  17 2.85   7 2.85  35 2.86  11 2.87  46 2.95
                            43 3.11
  32  0.517  0.905  0.644-  78 1.90  72 1.93  65 2.00  85 2.05  36 2.64  18 2.70   3 2.72   8 2.89
                            12 3.02  45 3.10  44 3.29
  33  0.498  0.605  0.538-  85 2.08  86 2.09  16 2.71  35 2.76  17 2.78   2 2.81  44 3.00  12 3.04
                            21 3.06   3 3.10  25 3.13  45 3.23
  34  0.499  0.102  0.365-  11 2.83   1 2.83  15 2.84   4 2.87  43 2.91  46 2.98  22 2.99
  35  0.400  0.580  0.451-  33 2.76  25 2.78   9 2.84  31 2.86  37 2.88  39 2.93  19 2.94  21 3.01
                            17 3.03  43 3.08
  36  0.399  0.120  0.635-  72 1.99  70 2.00  67 2.04  65 2.14  32 2.64  26 2.82  10 2.88  20 2.96
                            38 2.98  40 3.19  18 3.19  44 3.43
  37  0.255  0.366  0.464-  84 2.14  35 2.88  16 2.96  21 2.98  47 3.02  60 3.04  43 3.05  55 3.08
                            46 3.08  40 3.16  52 3.29  39 3.39
  38  0.230  0.925  0.635-  73 1.91  65 1.99  67 2.07  80 2.13  56 2.85  54 2.88  48 2.92  36 2.98
                            59 3.14  40 3.19  44 3.21  45 3.23
  39  0.252  0.614  0.376-  35 2.93  19 2.97  15 2.98  47 3.07  43 3.07  51 3.07  55 3.08  37 3.39
                            49 3.53
  40  0.253  0.136  0.546-  84 2.23  67 2.39  16 2.96  60 3.04  20 3.07  46 3.10  44 3.12  56 3.15
                            37 3.16  36 3.19  38 3.19  52 3.25  48 3.28  50 3.53
  41  0.865  0.859  0.370-   6 2.96  24 3.00  61 3.05  13 3.05  57 3.06  49 3.12   1 3.35  28 3.36
                            51 3.49  63 3.53
  42  0.860  0.388  0.552-  81 2.30  14 2.82   5 2.89  23 2.91  62 3.11   7 3.19  58 3.23  52 3.24
                            63 3.24   2 3.29  50 3.35  27 3.38  53 3.39  64 3.54
  43  0.381  0.352  0.373-  34 2.91  22 2.97  37 3.05  39 3.07  35 3.08   9 3.10  31 3.11  55 3.26
                            11 3.27  46 3.29
  44  0.380  0.866  0.548-  80 2.32  85 2.38  65 2.62  25 2.98  33 3.00  19 3.05  10 3.05  21 3.08
                            45 3.11  40 3.12  38 3.21  32 3.29  12 3.29  56 3.34  46 3.42  36 3.43
  45  0.373  0.659  0.635-  69 2.08  75 2.08  80 2.20  85 2.29  65 2.32  21 3.00   3 3.00  32 3.10
                            44 3.11  20 3.13  26 3.15  59 3.18  33 3.23  38 3.23
  46  0.384  0.104  0.456-  31 2.95  19 2.96  22 2.97  34 2.98  25 2.99  37 3.08  10 3.10  40 3.10
                             4 3.24  60 3.27  43 3.29  16 3.39  44 3.42  15 3.43
  47  0.117  0.611  0.465-  82 2.27  37 3.02   5 3.03  21 3.07  39 3.07  19 3.12  53 3.14  49 3.15
                            57 3.17  56 3.24  52 3.24  63 3.42  51 3.52  55 3.80
  48  0.098  0.165  0.635-  66 2.12  67 2.13  81 2.25  38 2.92  58 3.03  54 3.05  50 3.06  20 3.10
                            52 3.14  64 3.27  40 3.28
  49  0.996  0.593  0.368-  63 3.05  29 3.07  41 3.12  47 3.15  51 3.16  55 3.23  53 3.44  39 3.53
                            61 3.65  57 3.82
  50  0.998  0.102  0.539-  83 2.10  81 2.21  57 2.98  52 3.06  48 3.06  56 3.08  30 3.11  28 3.12
                            60 3.18  53 3.22  42 3.35  64 3.48  40 3.53  62 3.68  54 3.72
  51  0.119  0.872  0.375-  60 3.00  22 3.02   6 3.05  39 3.07  19 3.08  57 3.16  49 3.16  41 3.49
                            47 3.52
  52  0.095  0.388  0.552-  84 2.15  81 2.17  82 2.22   5 2.96  50 3.06  53 3.08  21 3.12  20 3.13
                            48 3.14  59 3.18  42 3.24  47 3.24  40 3.25  37 3.29  58 3.35
  53  1.000  0.331  0.453-   6 2.91  29 2.94  28 2.98  60 3.06  52 3.08  63 3.08  55 3.09  47 3.14
                            50 3.22  42 3.39  49 3.44
  54  0.026  0.865  0.644-  77 2.12  73 2.13  68 2.26  59 2.86  38 2.88  27 2.98  48 3.05  56 3.13
                            64 3.40  30 3.51   5 3.51  50 3.72
  55  0.145  0.332  0.368-   6 3.05  37 3.08  39 3.08  53 3.09  22 3.10  49 3.23  60 3.24  43 3.26
                            47 3.80
  56  0.138  0.852  0.546-  80 2.26  82 2.26  38 2.85   5 3.03  50 3.08  54 3.13  57 3.14  40 3.15
                            59 3.18  21 3.21  47 3.24  19 3.28  44 3.34  60 3.50
  57  0.979  0.876  0.465-  28 2.90  30 2.97  50 2.98  41 3.06  63 3.11  60 3.13  56 3.14  51 3.16
                            47 3.17   5 3.18  13 3.27   6 3.37  49 3.82
  58  0.969  0.415  0.655-  76 2.07  66 2.10  68 2.21  81 2.22  27 2.72  14 3.01  48 3.03  64 3.09
                            59 3.20  42 3.23  52 3.35
  59  0.143  0.622  0.629-  69 2.16  68 2.16  73 2.21  80 2.27  82 2.31  54 2.86  20 3.02  21 3.08
                            38 3.14  52 3.18  45 3.18  56 3.18  58 3.20   5 3.28
  60  0.147  0.092  0.451-  51 3.00  37 3.04  40 3.04  53 3.06  19 3.07   6 3.08  22 3.10  57 3.13
                            50 3.18  55 3.24  46 3.27  56 3.50
  61  0.731  0.606  0.367-   1 2.93  17 2.95   9 2.95  11 2.96  29 2.98  41 3.05  63 3.17  49 3.65

  62  0.731  0.122  0.542-  83 2.09   2 2.83  12 2.88  28 2.91  18 2.91   4 3.02  10 3.03  30 3.03
                            42 3.11   7 3.15  64 3.34  50 3.68
  63  0.869  0.592  0.458-   5 2.88  13 2.98  49 3.05   7 3.07  53 3.08  57 3.11  61 3.17  42 3.24
                            29 3.25  23 3.39  47 3.42  17 3.44  41 3.53
  64  0.862  0.131  0.644-  71 2.10  83 2.11  66 2.16  77 2.52  81 2.60  14 2.97  58 3.09  18 3.21
                             8 3.24  48 3.27  62 3.34  54 3.40  50 3.48  42 3.54
  65  0.372  0.900  0.642-  38 1.99  32 2.00  36 2.14  45 2.32  44 2.62
  66  0.984  0.213  0.684-  58 2.10  48 2.12  64 2.16
  67  0.252  0.139  0.633-  36 2.04  38 2.07  48 2.13  20 2.21  40 2.39
  68  0.004  0.638  0.664-  27 2.06  59 2.16  58 2.21  54 2.26
  69  0.267  0.536  0.667-  20 2.03  45 2.08  59 2.16
  70  0.386  0.308  0.666-  26 1.93  36 2.00  20 2.04
  71  0.739  0.040  0.676-   8 2.05  18 2.09  64 2.10
  72  0.513  0.082  0.678-  32 1.93  36 1.99  18 2.06
  73  0.159  0.805  0.677-  38 1.91  54 2.13  59 2.21
  74  0.620  0.334  0.661-  26 1.99  14 2.02  18 2.04
  75  0.490  0.559  0.668-   3 1.76  26 2.01  45 2.08
  76  0.843  0.500  0.683-  14 1.99  27 2.04  58 2.07
  77  0.872  0.869  0.638-   8 2.04  27 2.08  54 2.12  30 2.40  64 2.52
  78  0.608  0.792  0.679-   3 1.82  32 1.90   8 2.06
  79  0.722  0.634  0.635-   3 1.82  27 2.03   8 2.13  23 2.16  14 2.30
  80  0.257  0.750  0.590-  21 2.11  38 2.13  45 2.20  56 2.26  59 2.27  44 2.32
  81  0.984  0.274  0.591-  52 2.17  50 2.21  58 2.22  48 2.25  42 2.30  64 2.60
  82  0.123  0.616  0.547-   5 2.08  21 2.14  52 2.22  56 2.26  47 2.27  59 2.31
  83  0.864  0.060  0.572-  30 2.01  62 2.09  50 2.10  64 2.11
  84  0.249  0.368  0.541-  21 2.08  16 2.13  37 2.14  52 2.15  40 2.23  20 2.28
  85  0.502  0.750  0.594-   3 2.04  32 2.05  33 2.08  45 2.29  12 2.33  44 2.38
  86  0.596  0.520  0.588-   3 1.84   2 1.89  33 2.09  23 2.21  26 2.26
 
  LATTYP: Found a simple orthorhombic cell.
 ALAT       =     9.5644817352
 B/A-ratio  =     1.4398428730
 C/A-ratio  =     2.8922184390
  
  Lattice vectors:
  
 A1 = (   0.0000000000,  -9.5644817352,   0.0000000000)
 A2 = ( -13.7713508606,   0.0000000000,   0.0000000000)
 A3 = (   0.0000000000,   0.0000000000, -27.6625704340)


Analysis of symmetry for initial positions (statically):
=====================================================================
 Subroutine PRICEL returns:
 Original cell was already a primitive cell.
 

 Routine SETGRP: Setting up the symmetry group for a 
 simple orthorhombic supercell.


 Subroutine GETGRP returns: Found  1 space group operations
 (whereof  1 operations were pure point group operations)
 out of a pool of  8 trial point group operations.


The static configuration has the point symmetry C_1 .


Analysis of symmetry for dynamics (positions and initial velocities):
=====================================================================
 Subroutine PRICEL returns:
 Original cell was already a primitive cell.
 

 Routine SETGRP: Setting up the symmetry group for a 
 simple orthorhombic supercell.


 Subroutine GETGRP returns: Found  1 space group operations
 (whereof  1 operations were pure point group operations)
 out of a pool of  8 trial point group operations.


The dynamic configuration has the point symmetry C_1 .


Analysis of constrained symmetry for selective dynamics:
=====================================================================
 Subroutine PRICEL returns:
 Original cell was already a primitive cell.
 

 Routine SETGRP: Setting up the symmetry group for a 
 simple orthorhombic supercell.


 Subroutine GETGRP returns: Found  1 space group operations
 (whereof  1 operations were pure point group operations)
 out of a pool of  8 trial point group operations.


The constrained configuration has the point symmetry C_1 .


 Subroutine INISYM returns: Found  1 space group operations
 (whereof  1 operations are pure point group operations),
 and found     1 'primitive' translations

 
 
 KPOINTS: k-points                                

Automatic generation of k-mesh.
Space group operators:
 irot       det(A)        alpha          n_x          n_y          n_z        tau_x        tau_y        tau_z
    1     1.000000     0.000000     1.000000     0.000000     0.000000     0.000000     0.000000     0.000000
 
 Subroutine IBZKPT returns following result:
 ===========================================
 
 Found      5 irreducible k-points:
 
 Following reciprocal coordinates:
            Coordinates               Weight
  0.000000  0.000000  0.000000      1.000000
  0.333333  0.000000  0.000000      2.000000
  0.000000  0.333333  0.000000      2.000000
  0.333333  0.333333  0.000000      2.000000
 -0.333333  0.333333  0.000000      2.000000
 
 Following cartesian coordinates:
            Coordinates               Weight
  0.000000  0.000000  0.000000      1.000000
  0.024205  0.000000  0.000000      2.000000
  0.000000  0.034851  0.000000      2.000000
  0.024205  0.034851  0.000000      2.000000
 -0.024205  0.034851  0.000000      2.000000
 


--------------------------------------------------------------------------------------------------------




 Dimension of arrays:
   k-points           NKPTS =      5   k-points in BZ     NKDIM =      5   number of bands    NBANDS=    286
   number of dos      NEDOS =    301   number of ions     NIONS =     86
   non local maximal  LDIM  =      6   non local SUM 2l+1 LMDIM =     18
   total plane-waves  NPLWV = 846720
   max r-space proj   IRMAX =      1   max aug-charges    IRDMAX=  25433
   dimension x,y,z NGX =    84 NGY =   60 NGZ =  168
   dimension x,y,z NGXF=   168 NGYF=  120 NGZF=  336
   support grid    NGXF=   168 NGYF=  120 NGZF=  336
   ions per type =               6  10   4  18  26  22
 NGX,Y,Z   is equivalent  to a cutoff of  10.14, 10.43, 10.10 a.u.
 NGXF,Y,Z  is equivalent  to a cutoff of  20.28, 20.86, 20.19 a.u.


 I would recommend the setting:
   dimension x,y,z NGX =    83 NGY =   57 NGZ =  166
 SYSTEM =  (110) surface                           
 POSCAR =  Al Nb Ta Ti Zr                          

 Startparameter for this run:
   NWRITE =      2    write-flag & timer
   PREC   = normal    normal or accurate (medium, high low for compatibility)
   ISTART =      0    job   : 0-new  1-cont  2-samecut
   ICHARG =      2    charge: 1-file 2-atom 10-const
   ISPIN  =      1    spin polarized calculation?
   LNONCOLLINEAR =      F non collinear calculations
   LSORBIT =      F    spin-orbit coupling
   INIWAV =      1    electr: 0-lowe 1-rand  2-diag
   LASPH  =      F    aspherical Exc in radial PAW
   METAGGA=      F    non-selfconsistent MetaGGA calc.

 Electronic Relaxation 1
   ENCUT  =  600.0 eV  44.10 Ry    6.64 a.u.  27.50 19.10 55.25*2*pi/ulx,y,z
   ENINI  =  600.0     initial cutoff
   ENAUG  =  605.4 eV  augmentation charge cutoff
   NELM   =     60;   NELMIN=  2; NELMDL= -5     # of ELM steps 
   EDIFF  = 0.1E-03   stopping-criterion for ELM
   LREAL  =      F    real-space projection
   NLSPLINE    = F    spline interpolate recip. space projectors
   LCOMPAT=      F    compatible to vasp.4.4
   GGA_COMPAT  = T    GGA compatible to vasp.4.4-vasp.4.6
   LMAXPAW     = -100 max onsite density
   LMAXMIX     =    2 max onsite mixed and CHGCAR
   VOSKOWN=      0    Vosko Wilk Nusair interpolation
   ROPT   =    0.00000   0.00000   0.00000   0.00000
   ROPT   =    0.00000   0.00000
 Ionic relaxation
   EDIFFG = 0.1E-02   stopping-criterion for IOM
   NSW    =      0    number of steps for IOM
   NBLOCK =      1;   KBLOCK =      1    inner block; outer block 
   IBRION =     -1    ionic relax: 0-MD 1-quasi-New 2-CG
   NFREE  =      0    steps in history (QN), initial steepest desc. (CG)
   ISIF   =      2    stress and relaxation
   IWAVPR =     10    prediction:  0-non 1-charg 2-wave 3-comb
   ISYM   =      2    0-nonsym 1-usesym 2-fastsym
   LCORR  =      T    Harris-Foulkes like correction to forces

   POTIM  = 0.1000    time-step for ionic-motion
   TEIN   =    0.0    initial temperature
   TEBEG  =    0.0;   TEEND  =   0.0 temperature during run
   SMASS  =  -3.00    Nose mass-parameter (am)
   estimated Nose-frequenzy (Omega)   =  0.10E-29 period in steps =****** mass=  -0.433E-26a.u.
   SCALEE = 1.0000    scale energy and forces
   NPACO  =    256;   APACO  = 16.0  distance and # of slots for P.C.
   PSTRESS=    0.0 pullay stress

  Mass of Ions in am
   POMASS =  26.98 92.91180.95 47.88 91.22 16.00
  Ionic Valenz
   ZVAL   =   3.00 13.00  5.00  4.00  4.00  6.00
  Atomic Wigner-Seitz radii
   RWIGS  =  -1.00 -1.00 -1.00 -1.00 -1.00 -1.00
  virtual crystal weights 
   VCA    =   1.00  1.00  1.00  1.00  1.00  1.00
   NELECT =     476.0000    total number of electrons
   NUPDOWN=      -1.0000    fix difference up-down

 DOS related values:
   EMIN   =  10.00;   EMAX   =-10.00  energy-range for DOS
   EFERMI =   0.00
   ISMEAR =     2;   SIGMA  =   0.10  broadening in eV -4-tet -1-fermi 0-gaus

 Electronic relaxation 2 (details)
   IALGO  =     68    algorithm
   LDIAG  =      T    sub-space diagonalisation (order eigenvalues)
   LSUBROT=      F    optimize rotation matrix (better conditioning)
   TURBO    =      0    0=normal 1=particle mesh
   IRESTART =      0    0=no restart 2=restart with 2 vectors
   NREBOOT  =      0    no. of reboots
   NMIN     =      0    reboot dimension
   EREF     =   0.00    reference energy to select bands
   IMIX   =      4    mixing-type and parameters
     AMIX     =   0.40;   BMIX     =  1.00
     AMIX_MAG =   1.60;   BMIX_MAG =  1.00
     AMIN     =   0.10
     WC   =   100.;   INIMIX=   1;  MIXPRE=   1;  MAXMIX= -45

 Intra band minimization:
   WEIMIN = 0.0000     energy-eigenvalue tresh-hold
   EBREAK =  0.87E-07  absolut break condition
   DEPER  =   0.30     relativ break condition  

   TIME   =   0.40     timestep for ELM

  volume/ion in A,a.u.               =      42.37       285.91
  Fermi-wavevector in a.u.,A,eV,Ry     =   0.830680  1.569757  9.388413  0.690029
  Thomas-Fermi vector in A             =   1.943438
 
 Write flags
   LWAVE  =      F    write WAVECAR
   LCHARG =      T    write CHGCAR
   LVTOT  =      F    write LOCPOT, total local potential
   LVHAR  =      F    write LOCPOT, Hartree potential only
   LELF   =      F    write electronic localiz. function (ELF)
   LORBIT =      0    0 simple, 1 ext, 2 COOP (PROOUT)


 Dipole corrections
   LMONO  =      F    monopole corrections only (constant potential shift)
   LDIPOL =      F    correct potential (dipole corrections)
   IDIPOL =      0    1-x, 2-y, 3-z, 4-all directions 
   EPSILON=  1.0000000 bulk dielectric constant

 Exchange correlation treatment:
   GGA     =    --    GGA type
   LEXCH   =     8    internal setting for exchange type
   VOSKOWN=      0    Vosko Wilk Nusair interpolation
   LHFCALC =     F    Hartree Fock is set to
   LHFONE  =     F    Hartree Fock one center treatment
   AEXX    =    0.0000 exact exchange contribution

 Linear response parameters
   LEPSILON=     F    determine dielectric tensor
   LRPA    =     F    only Hartree local field effects (RPA)
   LNABLA  =     F    use nabla operator in PAW spheres
   LVEL    =     F    velocity operator in full k-point grid
   LINTERFAST=   F  fast interpolation
   KINTER  =     0    interpolate to denser k-point grid
   CSHIFT  =0.1000    complex shift for real part using Kramers Kronig
   OMEGAMAX=  -1.0    maximum frequency
   DEG_THRESHOLD= 0.2000000E-02 threshold for treating states as degnerate
   RTIME   =    0.100 relaxation time in fs

 Orbital magnetization related:
   ORBITALMAG=     F  switch on orbital magnetization
   LCHIMAG   =     F  perturbation theory with respect to B field
   DQ        =  0.001000  dq finite difference perturbation B field



--------------------------------------------------------------------------------------------------------


 Static calculation
 charge density and potential will be updated during run
 non-spin polarized calculation
 RMM-DIIS sequential band-by-band and
  variant of blocked Davidson during initial phase
 perform sub-space diagonalisation
    before iterative eigenvector-optimisation
 modified Broyden-mixing scheme, WC =      100.0
 initial mixing is a Kerker type mixing with AMIX =  0.4000 and BMIX =      1.0000
 Hartree-type preconditioning will be used
 using additional bands           48
 reciprocal scheme for non local part
 use partial core corrections
 calculate Harris-corrections to forces 
   (improved forces if not selfconsistent)
 use gradient corrections 
 use of overlap-Matrix (Vanderbilt PP)
 Methfessel and Paxton  Order N= 2 SIGMA  =   0.10


--------------------------------------------------------------------------------------------------------


  energy-cutoff  :      600.00
  volume of cell :     3643.60
      direct lattice vectors                 reciprocal lattice vectors
    13.771350861  0.000000000  0.000000000     0.072614518  0.000000000  0.000000000
     0.000000000  9.564481735  0.000000000     0.000000000  0.104553496  0.000000000
     0.000000000  0.000000000 27.662570434     0.000000000  0.000000000  0.036149931

  length of vectors
    13.771350861  9.564481735 27.662570434     0.072614518  0.104553496  0.036149931


 
 k-points in units of 2pi/SCALE and weight: k-points                                
   0.00000000  0.00000000  0.00000000       0.111
   0.02420484  0.00000000  0.00000000       0.222
   0.00000000  0.03485117  0.00000000       0.222
   0.02420484  0.03485117  0.00000000       0.222
  -0.02420484  0.03485117  0.00000000       0.222
 
 k-points in reciprocal lattice and weights: k-points                                
   0.00000000  0.00000000  0.00000000       0.111
   0.33333333  0.00000000  0.00000000       0.222
   0.00000000  0.33333333  0.00000000       0.222
   0.33333333  0.33333333  0.00000000       0.222
  -0.33333333  0.33333333  0.00000000       0.222
 
 position of ions in fractional coordinates (direct lattice) 
   0.62276447  0.86746430  0.37590333
   0.62186837  0.37263974  0.54395332
   0.59001865  0.64068827  0.63944151
   0.61839700  0.08363760  0.44965952
   0.97301569  0.64237308  0.54674806
   0.97963780  0.12056648  0.37767599
   0.72857308  0.34338307  0.45816820
   0.72444829  0.85678689  0.63811287
   0.51739597  0.60805875  0.36719826
   0.51185397  0.12169178  0.54769760
   0.61811078  0.34297293  0.36889183
   0.61869485  0.86868483  0.54830139
   0.74231148  0.84345710  0.46199300
   0.75283343  0.39811426  0.63875539
   0.39405298  0.84738672  0.36896032
   0.40379562  0.35615973  0.54102081
   0.61928761  0.60162497  0.45752798
   0.62999825  0.13428118  0.63474306
   0.27944195  0.83362269  0.45088327
   0.27175019  0.36679437  0.62295864
   0.27622144  0.58189460  0.54112865
   0.28324246  0.07725573  0.36149931
   0.72564505  0.62310136  0.55717371
   0.74002355  0.11549973  0.36646499
   0.49591756  0.83582580  0.45790018
   0.49407951  0.37974036  0.62949584
   0.86883366  0.65203317  0.63267500
   0.84724605  0.11017048  0.45460239
   0.85243583  0.34907103  0.37639265
   0.85159008  0.85798426  0.55173596
   0.52175105  0.33942658  0.46105252
   0.51746182  0.90534801  0.64443419
   0.49776879  0.60468830  0.53790092
   0.49943882  0.10200214  0.36464270
   0.40016663  0.58028412  0.45130253
   0.39872503  0.11984731  0.63546477
   0.25505811  0.36595738  0.46399110
   0.22952052  0.92539726  0.63479202
   0.25182599  0.61397660  0.37627308
   0.25300444  0.13601944  0.54612949
   0.86539888  0.85904646  0.37036829
   0.85986996  0.38802721  0.55176560
   0.38059813  0.35186696  0.37331264
   0.37986346  0.86608727  0.54835029
   0.37268072  0.65850462  0.63469441
   0.38408008  0.10357511  0.45579618
   0.11657381  0.61110574  0.46457054
   0.09785541  0.16486867  0.63543473
   0.99629861  0.59295863  0.36811234
   0.99837282  0.10218027  0.53873529
   0.11869311  0.87196302  0.37467704
   0.09509915  0.38758625  0.55191258
   0.99977952  0.33051389  0.45306987
   0.02562516  0.86455043  0.64430305
   0.14482272  0.33176249  0.36788561
   0.13773866  0.85182861  0.54614185
   0.97888047  0.87608504  0.46520830
   0.96865589  0.41459979  0.65491658
   0.14333667  0.62232458  0.62948345
   0.14721048  0.09173214  0.45072276
   0.73135245  0.60578495  0.36679988
   0.73129989  0.12188220  0.54248666
   0.86923259  0.59196168  0.45825814
   0.86227485  0.13130929  0.64407563
   0.37227003  0.89980455  0.64212139
   0.98432047  0.21318280  0.68431364
   0.25154578  0.13891332  0.63261985
   0.00369053  0.63823318  0.66445281
   0.26659237  0.53626884  0.66724175
   0.38551227  0.30819908  0.66581230
   0.73887227  0.03965418  0.67579837
   0.51295508  0.08214441  0.67774335
   0.15920895  0.80514196  0.67739959
   0.62001002  0.33353558  0.66057975
   0.48991248  0.55919009  0.66758704
   0.84263179  0.50006058  0.68281384
   0.87248524  0.86880767  0.63771590
   0.60751424  0.79195241  0.67854368
   0.72185442  0.63391579  0.63520710
   0.25708185  0.74968362  0.58962225
   0.98355200  0.27420543  0.59134938
   0.12284953  0.61614602  0.54665513
   0.86436423  0.05951121  0.57179968
   0.24917322  0.36836163  0.54146062
   0.50237411  0.75021327  0.59367512
   0.59598957  0.52000863  0.58751354
 
 position of ions in cartesian coordinates  (Angst):
   8.57630799  8.29684649 10.39845223
   8.56396748  3.56410595 15.04714699
   8.12535385  6.12785129 17.68859593
   8.51616202  0.79995025 12.43873821
  13.39974049  6.14396557 15.12445682
  13.49093588  1.15315590 10.44748880
  10.03343557  3.28428114 12.67411000
   9.97663164  8.19472261 17.65184228
   7.12524148  5.81576681 10.15764776
   7.04892062  1.16391883 15.15072353
   8.51222037  3.28035836 10.20449636
   8.52026389  8.30852018 15.16742589
  10.22263181  8.06723005 12.77991378
  10.36753324  3.80775655 17.66961587
   5.42664188  8.10481479 10.20639088
   5.56081120  3.40648321 14.96602624
   8.52842696  5.75423100 12.65640004
   8.67592693  1.28432993 17.55862467
   3.84829318  7.97316903 12.47259035
   3.74236725  3.50819801 17.23263715
   3.80394241  5.56552026 14.96900935
   3.90063135  0.73891098 10.00000000
   9.99311262  5.95964161 15.41285711
  10.19112400  1.10469510 10.13736353
   6.82945470  7.99424061 12.66669595
   6.80414228  3.63201977 17.41347293
  11.96501318  6.23635934 17.50141665
  11.66772263  1.05372358 12.57547056
  11.73919286  3.33868345 10.41198829
  11.72754583  8.20617481 15.26243482
   7.18521672  3.24643930 12.75389771
   7.12614832  8.65918452 17.82670606
   6.85494860  5.78353025 14.87972212
   6.87794726  0.97559764 10.08695433
   5.51083508  5.55011685 12.48418803
   5.49098230  1.14627739 17.57858886
   3.51249472  3.50019267 12.83518635
   3.16080764  8.85094522 17.55997888
   3.46798404  5.87236796 10.40868071
   3.48421297  1.30095543 15.10734540
  11.91771166  8.21633417 10.24533883
  11.84157090  3.71127917 15.26325488
   5.24135036  3.36542512 10.32678719
   5.23123300  8.28367590 15.16877863
   5.13231697  6.29825545 17.55727888
   5.28930157  0.99064225 12.60849381
   1.60537885  5.84490969 12.85121538
   1.34760124  1.57688336 17.57775804
  13.72037774  5.67134198 10.18293350
  13.74894242  0.97730135 14.90280299
   1.63456451  8.33987442 10.36453009
   1.30964377  3.70706166 15.26732055
  13.76831459  3.16119411 12.53307716
   0.35289311  8.26897680 17.82307860
   1.99440444  3.17313630 10.17666150
   1.89684736  8.14729913 15.10768741
  13.48050634  8.37929939 12.86885734
  13.33970015  3.96543212 18.11667599
   1.97393959  5.95221211 17.41313032
   2.02728715  0.87737042 12.46815015
  10.07171117  5.79401911 10.14662739
  10.07098740  1.16574009 15.00657548
  11.97050705  5.66180669 12.67659812
  11.87468950  1.25590534 17.81678753
   5.12666118  8.60616420 17.76272815
  13.55542259  2.03898298 18.92987438
   3.46412522  1.32863388 17.49989129
   0.05082358  6.10436960 18.38047264
   3.67133707  5.12913353 18.45762194
   5.30902477  2.94776446 18.41807951
  10.17526928  0.37927168 18.69431992
   7.06408432  0.78566875 18.74812303
   2.19252237  7.70076556 18.73861375
   8.53837547  3.19009492 18.27333388
   6.74675661  5.34836343 18.46717340
  11.60417801  4.78282026 18.88838589
  12.01530032  8.30969512 17.64086096
   8.36629173  7.57461439 18.77026221
   9.94091052  6.06307599 17.57146114
   3.54036440  7.17033533 16.31046707
  13.54483962  2.62263279 16.35824395
   1.69180403  5.89311739 15.12188615
  11.90346306  0.56919385 15.81744894
   3.43145190  3.52318808 14.97819249
   6.91837013  7.17540116 16.42257969
   8.20758147  4.97361302 16.25213473
 


--------------------------------------------------------------------------------------------------------


 k-point  1 :   0.0000 0.0000 0.0000  plane waves:  121663
 k-point  2 :   0.3333 0.0000 0.0000  plane waves:  121577
 k-point  3 :   0.0000 0.3333 0.0000  plane waves:  121622
 k-point  4 :   0.3333 0.3333 0.0000  plane waves:  121647
 k-point  5 :  -0.3333 0.3333 0.0000  plane waves:  121647

 maximum and minimum number of plane-waves per node :      5107     5041

 maximum number of plane-waves:    121663
 maximum index in each direction: 
   IXMAX=   27   IYMAX=   19   IZMAX=   55
   IXMIN=  -27   IYMIN=  -19   IZMIN=  -55

 WARNING: aliasing errors must be expected set NGX to 110 to avoid them
 WARNING: aliasing errors must be expected set NGY to  78 to avoid them
 WARNING: aliasing errors must be expected set NGZ to 222 to avoid them
 aliasing errors are usually negligible using standard VASP settings
 and one can safely disregard these warnings

 parallel 3D FFT for wavefunctions:
    minimum data exchange during FFTs selected (reduces bandwidth)
 parallel 3D FFT for charge:
    minimum data exchange during FFTs selected (reduces bandwidth)


 total amount of memory used by VASP on root node   140044. kBytes
========================================================================

   base      :      30000. kBytes
   nonl-proj :      28901. kBytes
   fftplans  :       6516. kBytes
   grid      :      15878. kBytes
   one-center:         62. kBytes
   wavefun   :      58687. kBytes
 
     INWAV:  cpu time    0.0000: real time    0.0000
 Broyden mixing: mesh for mixing (old mesh)
   NGX = 55   NGY = 39   NGZ =111
  (NGX  =168   NGY  =120   NGZ  =336)
  gives a total of 238095 points

 initial charge density was supplied:
 charge density of overlapping atoms calculated
 number of electron     476.0000000 magnetization 
 keeping initial charge density in first step


--------------------------------------------------------------------------------------------------------


 Maximum index for augmentation-charges         1033 (set IRDMAX)


--------------------------------------------------------------------------------------------------------


 First call to EWALD:  gamma=   0.115
 Maximum number of real-space cells 3x 4x 2
 Maximum number of reciprocal cells 3x 2x 5

 FEWALD executed in parallel
    FEWALD:  cpu time    0.0031: real time    0.0031


----------------------------------------- Iteration    1(   1)  ---------------------------------------


    POTLOK:  cpu time    0.1133: real time    0.1237
    SETDIJ:  cpu time    0.0146: real time    0.0174
     EDDAV:  cpu time   22.5637: real time   22.5990
       DOS:  cpu time    0.0015: real time    0.0015
    --------------------------------------------
      LOOP:  cpu time   22.6968: real time   22.7506

 eigenvalue-minimisations  :  2996
 total energy-change (2. order) : 0.6266857E+04  (-0.1838292E+05)
 number of electron     476.0000000 magnetization 
 augmentation part      476.0000000 magnetization 

 Free energy of the ion-electron system (eV)
  ---------------------------------------------------
  alpha Z        PSCENC =       768.88063532
  Ewald energy   TEWEN  =    124419.27326856
  -Hartree energ DENC   =   -151048.02385130
  -exchange      EXHF   =         0.00000000
  -V(xc)+E(xc)   XCENC  =     -2471.32879065
  PAW double counting   =     27063.36961475   -23011.70659015
  entropy T*S    EENTRO =        -0.00677462
  eigenvalues    EBANDS =       908.43385351
  atomic energy  EATOM  =     29637.96612972
  Solvation  Ediel_sol  =         0.00000000
  ---------------------------------------------------
  free energy    TOTEN  =      6266.85749514 eV

  energy without entropy =     6266.86426976  energy(sigma->0) =     6266.85918879


--------------------------------------------------------------------------------------------------------




----------------------------------------- Iteration    1(   2)  ---------------------------------------


     EDDAV:  cpu time   22.4274: real time   22.4274
       DOS:  cpu time    0.0019: real time    0.0019
    --------------------------------------------
      LOOP:  cpu time   22.4309: real time   22.4348

 eigenvalue-minimisations  :  2978
 total energy-change (2. order) :-0.5270053E+04  (-0.5110561E+04)
 number of electron     476.0000000 magnetization 
 augmentation part      476.0000000 magnetization 

 Free energy of the ion-electron system (eV)
  ---------------------------------------------------
  alpha Z        PSCENC =       768.88063532
  Ewald energy   TEWEN  =    124419.27326856
  -Hartree energ DENC   =   -151048.02385130
  -exchange      EXHF   =         0.00000000
  -V(xc)+E(xc)   XCENC  =     -2471.32879065
  PAW double counting   =     27063.36961475   -23011.70659015
  entropy T*S    EENTRO =        -0.00133254
  eigenvalues    EBANDS =     -4361.62436530
  atomic energy  EATOM  =     29637.96612972
  Solvation  Ediel_sol  =         0.00000000
  ---------------------------------------------------
  free energy    TOTEN  =       996.80471840 eV

  energy without entropy =      996.80605094  energy(sigma->0) =      996.80505154


--------------------------------------------------------------------------------------------------------




----------------------------------------- Iteration    1(   3)  ---------------------------------------


     EDDAV:  cpu time   35.3290: real time   35.3307
       DOS:  cpu time    0.0017: real time    0.0017
    --------------------------------------------
      LOOP:  cpu time   35.3327: real time   35.3372

 eigenvalue-minimisations  :  5192
 total energy-change (2. order) :-0.1576344E+04  (-0.1527718E+04)
 number of electron     476.0000000 magnetization 
 augmentation part      476.0000000 magnetization 

 Free energy of the ion-electron system (eV)
  ---------------------------------------------------
  alpha Z        PSCENC =       768.88063532
  Ewald energy   TEWEN  =    124419.27326856
  -Hartree energ DENC   =   -151048.02385130
  -exchange      EXHF   =         0.00000000
  -V(xc)+E(xc)   XCENC  =     -2471.32879065
  PAW double counting   =     27063.36961475   -23011.70659015
  entropy T*S    EENTRO =        -0.00236629
  eigenvalues    EBANDS =     -5937.96759680
  atomic energy  EATOM  =     29637.96612972
  Solvation  Ediel_sol  =         0.00000000
  ---------------------------------------------------
  free energy    TOTEN  =      -579.53954684 eV

  energy without entropy =     -579.53718055  energy(sigma->0) =     -579.53895527


--------------------------------------------------------------------------------------------------------




----------------------------------------- Iteration    1(   4)  ---------------------------------------


     EDDAV:  cpu time   29.9576: real time   29.9576
       DOS:  cpu time    0.0017: real time    0.0017
    --------------------------------------------
      LOOP:  cpu time   29.9605: real time   29.9620

 eigenvalue-minimisations  :  4272
 total energy-change (2. order) :-0.2343563E+03  (-0.2274553E+03)
 number of electron     476.0000000 magnetization 
 augmentation part      476.0000000 magnetization 

 Free energy of the ion-electron system (eV)
  ---------------------------------------------------
  alpha Z        PSCENC =       768.88063532
  Ewald energy   TEWEN  =    124419.27326856
  -Hartree energ DENC   =   -151048.02385130
  -exchange      EXHF   =         0.00000000
  -V(xc)+E(xc)   XCENC  =     -2471.32879065
  PAW double counting   =     27063.36961475   -23011.70659015
  entropy T*S    EENTRO =         0.01225416
  eigenvalues    EBANDS =     -6172.33850439
  atomic energy  EATOM  =     29637.96612972
  Solvation  Ediel_sol  =         0.00000000
  ---------------------------------------------------
  free energy    TOTEN  =      -813.89583398 eV

  energy without entropy =     -813.90808815  energy(sigma->0) =     -813.89889752


--------------------------------------------------------------------------------------------------------




----------------------------------------- Iteration    1(   5)  ---------------------------------------


     EDDAV:  cpu time   35.4747: real time   35.4747
       DOS:  cpu time    0.0017: real time    0.0017
    CHARGE:  cpu time    0.3556: real time    0.3569
    MIXING:  cpu time    0.0075: real time    0.0084
    --------------------------------------------
      LOOP:  cpu time   35.8409: real time   35.8445

 eigenvalue-minimisations  :  5216
 total energy-change (2. order) :-0.1891546E+02  (-0.1844640E+02)
 number of electron     476.0000080 magnetization 
 augmentation part       56.9812269 magnetization 

 Broyden mixing:
  rms(total) = 0.84075E+01    rms(broyden)= 0.84073E+01
  rms(prec ) = 0.88252E+01
  weight for this iteration     100.00

 Free energy of the ion-electron system (eV)
  ---------------------------------------------------
  alpha Z        PSCENC =       768.88063532
  Ewald energy   TEWEN  =    124419.27326856
  -Hartree energ DENC   =   -151048.02385130
  -exchange      EXHF   =         0.00000000
  -V(xc)+E(xc)   XCENC  =     -2471.32879065
  PAW double counting   =     27063.36961475   -23011.70659015
  entropy T*S    EENTRO =         0.00797358
  eigenvalues    EBANDS =     -6191.24968444
  atomic energy  EATOM  =     29637.96612972
  Solvation  Ediel_sol  =         0.00000000
  ---------------------------------------------------
  free energy    TOTEN  =      -832.81129461 eV

  energy without entropy =     -832.81926819  energy(sigma->0) =     -832.81328801


--------------------------------------------------------------------------------------------------------




----------------------------------------- Iteration    1(   6)  ---------------------------------------


    POTLOK:  cpu time    0.0988: real time    0.0988
    SETDIJ:  cpu time    0.0094: real time    0.0094
    EDDIAG:  cpu time    1.3815: real time    1.3832
  RMM-DIIS:  cpu time   25.2662: real time   25.2663
    ORTHCH:  cpu time    0.3598: real time    0.3598
       DOS:  cpu time    0.0017: real time    0.0017
    CHARGE:  cpu time    0.3533: real time    0.3533
    MIXING:  cpu time    0.0052: real time    0.0080
    --------------------------------------------
      LOOP:  cpu time   27.4780: real time   27.4844

 eigenvalue-minimisations  :  4673
 total energy-change (2. order) :-0.1260684E+02  (-0.1552090E+03)
 number of electron     476.0000054 magnetization 
 augmentation part       70.8362449 magnetization 

 Broyden mixing:
  rms(total) = 0.50482E+01    rms(broyden)= 0.50478E+01
  rms(prec ) = 0.65027E+01
  weight for this iteration     100.00

 eigenvalues of (default mixing * dielectric matrix)
  average eigenvalue GAMMA=   0.7941
  0.7941

 Free energy of the ion-electron system (eV)
  ---------------------------------------------------
  alpha Z        PSCENC =       768.88063532
  Ewald energy   TEWEN  =    124419.27326856
  -Hartree energ DENC   =   -152068.80182179
  -exchange      EXHF   =         0.00000000
  -V(xc)+E(xc)   XCENC  =     -2428.96493269
  PAW double counting   =     32217.02631938   -28176.13513291
  entropy T*S    EENTRO =        -0.02058352
  eigenvalues    EBANDS =     -5214.64202075
  atomic energy  EATOM  =     29637.96612972
  Solvation  Ediel_sol  =         0.00000000
  ---------------------------------------------------
  free energy    TOTEN  =      -845.41813868 eV

  energy without entropy =     -845.39755516  energy(sigma->0) =     -845.41299280


--------------------------------------------------------------------------------------------------------




----------------------------------------- Iteration    1(   7)  ---------------------------------------


    POTLOK:  cpu time    0.0966: real time    0.0967
    SETDIJ:  cpu time    0.0092: real time    0.0092
    EDDIAG:  cpu time    1.3687: real time    1.3687
  RMM-DIIS:  cpu time   22.3401: real time   22.3402
    ORTHCH:  cpu time    0.3593: real time    0.3594
       DOS:  cpu time    0.0017: real time    0.0017
    CHARGE:  cpu time    0.3574: real time    0.3574
    MIXING:  cpu time    0.0037: real time    0.0041
    --------------------------------------------
      LOOP:  cpu time   24.5387: real time   24.5411

 eigenvalue-minimisations  :  4110
 total energy-change (2. order) :-0.1122229E+02  (-0.3939939E+02)
 number of electron     476.0000067 magnetization 
 augmentation part       68.9249995 magnetization 

 Broyden mixing:
  rms(total) = 0.45833E+01    rms(broyden)= 0.45833E+01
  rms(prec ) = 0.78758E+01
  weight for this iteration     100.00

 eigenvalues of (default mixing * dielectric matrix)
  average eigenvalue GAMMA=   0.6889
  1.0134  0.3644

 Free energy of the ion-electron system (eV)
  ---------------------------------------------------
  alpha Z        PSCENC =       768.88063532
  Ewald energy   TEWEN  =    124419.27326856
  -Hartree energ DENC   =   -151282.57798449
  -exchange      EXHF   =         0.00000000
  -V(xc)+E(xc)   XCENC  =     -2434.92320116
  PAW double counting   =     33134.62877719   -29105.94996397
  entropy T*S    EENTRO =        -0.00124722
  eigenvalues    EBANDS =     -5993.93684441
  atomic energy  EATOM  =     29637.96612972
  Solvation  Ediel_sol  =         0.00000000
  ---------------------------------------------------
  free energy    TOTEN  =      -856.64043046 eV

  energy without entropy =     -856.63918324  energy(sigma->0) =     -856.64011865


--------------------------------------------------------------------------------------------------------




----------------------------------------- Iteration    1(   8)  ---------------------------------------


    POTLOK:  cpu time    0.0954: real time    0.0954
    SETDIJ:  cpu time    0.0091: real time    0.0091
    EDDIAG:  cpu time    1.3861: real time    1.3861
  RMM-DIIS:  cpu time   24.8875: real time   24.8876
    ORTHCH:  cpu time    0.3623: real time    0.3623
       DOS:  cpu time    0.0017: real time    0.0017
    CHARGE:  cpu time    0.3530: real time    0.3530
    MIXING:  cpu time    0.0039: real time    0.0045
    --------------------------------------------
      LOOP:  cpu time   27.1009: real time   27.1033

 eigenvalue-minimisations  :  4537
 total energy-change (2. order) : 0.7875930E+02  (-0.2399328E+02)
 number of electron     476.0000067 magnetization 
 augmentation part       57.8685055 magnetization 

 Broyden mixing:
  rms(total) = 0.36461E+01    rms(broyden)= 0.36460E+01
  rms(prec ) = 0.52861E+01
  weight for this iteration     100.00

 eigenvalues of (default mixing * dielectric matrix)
  average eigenvalue GAMMA=   0.6505
  1.2877  0.4264  0.2375

 Free energy of the ion-electron system (eV)
  ---------------------------------------------------
  alpha Z        PSCENC =       768.88063532
  Ewald energy   TEWEN  =    124419.27326856
  -Hartree energ DENC   =   -151765.42637580
  -exchange      EXHF   =         0.00000000
  -V(xc)+E(xc)   XCENC  =     -2436.84936995
  PAW double counting   =     34168.11881069   -30143.57132226
  entropy T*S    EENTRO =        -0.00977055
  eigenvalues    EBANDS =     -5426.26313316
  atomic energy  EATOM  =     29637.96612972
  Solvation  Ediel_sol  =         0.00000000
  ---------------------------------------------------
  free energy    TOTEN  =      -777.88112743 eV

  energy without entropy =     -777.87135688  energy(sigma->0) =     -777.87868479


--------------------------------------------------------------------------------------------------------




----------------------------------------- Iteration    1(   9)  ---------------------------------------


    POTLOK:  cpu time    0.0951: real time    0.0951
    SETDIJ:  cpu time    0.0091: real time    0.0091
    EDDIAG:  cpu time    1.3934: real time    1.3935
  RMM-DIIS:  cpu time   21.5636: real time   21.5638
    ORTHCH:  cpu time    0.3585: real time    0.3585
       DOS:  cpu time    0.0016: real time    0.0016
    CHARGE:  cpu time    0.3700: real time    0.3700
    MIXING:  cpu time    0.0039: real time    0.0039
    --------------------------------------------
      LOOP:  cpu time   23.7974: real time   23.7993

 eigenvalue-minimisations  :  3946
 total energy-change (2. order) : 0.4433169E+02  (-0.7096047E+01)
 number of electron     476.0000065 magnetization 
 augmentation part       59.2370034 magnetization 

 Broyden mixing:
  rms(total) = 0.22375E+01    rms(broyden)= 0.22375E+01
  rms(prec ) = 0.25886E+01
  weight for this iteration     100.00

 eigenvalues of (default mixing * dielectric matrix)
  average eigenvalue GAMMA=   0.7153
  1.6412  0.5037  0.5037  0.2127

 Free energy of the ion-electron system (eV)
  ---------------------------------------------------
  alpha Z        PSCENC =       768.88063532
  Ewald energy   TEWEN  =    124419.27326856
  -Hartree energ DENC   =   -151702.87200709
  -exchange      EXHF   =         0.00000000
  -V(xc)+E(xc)   XCENC  =     -2434.39468124
  PAW double counting   =     35334.79540179   -31303.47242626
  entropy T*S    EENTRO =        -0.00272263
  eigenvalues    EBANDS =     -5453.72303306
  atomic energy  EATOM  =     29637.96612972
  Solvation  Ediel_sol  =         0.00000000
  ---------------------------------------------------
  free energy    TOTEN  =      -733.54943489 eV

  energy without entropy =     -733.54671226  energy(sigma->0) =     -733.54875423


--------------------------------------------------------------------------------------------------------




----------------------------------------- Iteration    1(  10)  ---------------------------------------


    POTLOK:  cpu time    0.0956: real time    0.0956
    SETDIJ:  cpu time    0.0091: real time    0.0091
    EDDIAG:  cpu time    1.3944: real time    1.3944
  RMM-DIIS:  cpu time   22.4810: real time   22.4811
    ORTHCH:  cpu time    0.3589: real time    0.3589
       DOS:  cpu time    0.0018: real time    0.0018
    CHARGE:  cpu time    0.3526: real time    0.3526
    MIXING:  cpu time    0.0042: real time    0.0042
    --------------------------------------------
      LOOP:  cpu time   24.6997: real time   24.7016

 eigenvalue-minimisations  :  4124
 total energy-change (2. order) : 0.6866385E+01  (-0.7210208E+01)
 number of electron     476.0000066 magnetization 
 augmentation part       64.3367054 magnetization 

 Broyden mixing:
  rms(total) = 0.13388E+01    rms(broyden)= 0.13388E+01
  rms(prec ) = 0.16441E+01
  weight for this iteration     100.00

 eigenvalues of (default mixing * dielectric matrix)
  average eigenvalue GAMMA=   0.7356
  1.9377  0.6248  0.5632  0.3541  0.1982

 Free energy of the ion-electron system (eV)
  ---------------------------------------------------
  alpha Z        PSCENC =       768.88063532
  Ewald energy   TEWEN  =    124419.27326856
  -Hartree energ DENC   =   -151824.97510605
  -exchange      EXHF   =         0.00000000
  -V(xc)+E(xc)   XCENC  =     -2428.53712630
  PAW double counting   =     36463.74699697   -32423.94789342
  entropy T*S    EENTRO =         0.01200165
  eigenvalues    EBANDS =     -5339.10195630
  atomic energy  EATOM  =     29637.96612972
  Solvation  Ediel_sol  =         0.00000000
  ---------------------------------------------------
  free energy    TOTEN  =      -726.68304986 eV

  energy without entropy =     -726.69505151  energy(sigma->0) =     -726.68605027


--------------------------------------------------------------------------------------------------------




----------------------------------------- Iteration    1(  11)  ---------------------------------------


    POTLOK:  cpu time    0.0956: real time    0.0956
    SETDIJ:  cpu time    0.0093: real time    0.0093
    EDDIAG:  cpu time    1.3934: real time    1.3934
  RMM-DIIS:  cpu time   23.8601: real time   23.8602
    ORTHCH:  cpu time    0.3604: real time    0.3604
       DOS:  cpu time    0.0017: real time    0.0017
    CHARGE:  cpu time    0.3533: real time    0.3533
    MIXING:  cpu time    0.0043: real time    0.0043
    --------------------------------------------
      LOOP:  cpu time   26.0803: real time   26.0820

 eigenvalue-minimisations  :  4395
 total energy-change (2. order) : 0.1471669E+01  (-0.3927217E+01)
 number of electron     476.0000063 magnetization 
 augmentation part       64.1982602 magnetization 

 Broyden mixing:
  rms(total) = 0.11310E+01    rms(broyden)= 0.11310E+01
  rms(prec ) = 0.13598E+01
  weight for this iteration     100.00

 eigenvalues of (default mixing * dielectric matrix)
  average eigenvalue GAMMA=   0.7020
  1.9662  0.8277  0.4649  0.4649  0.1998  0.2888

 Free energy of the ion-electron system (eV)
  ---------------------------------------------------
  alpha Z        PSCENC =       768.88063532
  Ewald energy   TEWEN  =    124419.27326856
  -Hartree energ DENC   =   -151911.20597955
  -exchange      EXHF   =         0.00000000
  -V(xc)+E(xc)   XCENC  =     -2425.53556461
  PAW double counting   =     37520.16474965   -33477.74204009
  entropy T*S    EENTRO =        -0.00477512
  eigenvalues    EBANDS =     -5257.00780436
  atomic energy  EATOM  =     29637.96612972
  Solvation  Ediel_sol  =         0.00000000
[...]
   -.374E+03 0.820E+01 0.108E+04   0.374E+03 -.759E+01 -.108E+04   0.510E+00 -.257E+00 0.115E+01   -.376E-02 0.369E-02 0.306E-02
   -.251E+03 -.976E+02 -.143E+04   0.249E+03 0.991E+02 0.143E+04   0.165E+01 -.149E+01 0.151E+01   -.898E-03 0.903E-03 -.431E-02
   0.837E+02 -.151E+02 0.211E+04   -.833E+02 0.141E+02 -.210E+04   -.600E+00 0.541E+00 -.443E+01   0.305E-02 -.990E-03 0.512E-02
   0.139E+03 0.333E+02 0.178E+03   -.139E+03 -.334E+02 -.177E+03   0.285E+00 0.893E-01 -.157E+01   0.410E-02 0.459E-02 -.339E-02
   -.620E+02 0.145E+03 0.217E+04   0.628E+02 -.144E+03 -.217E+04   -.585E+00 -.371E+00 -.281E+01   0.852E-03 0.831E-02 0.645E-02
   -.398E+02 -.381E+02 0.288E+03   0.423E+02 0.389E+02 -.288E+03   -.246E+01 -.840E+00 0.389E+00   0.543E-02 0.280E-02 -.124E-02
   -.357E+03 -.641E+01 0.132E+04   0.358E+03 0.591E+01 -.132E+04   -.836E+00 0.874E+00 -.119E+01   -.132E-02 -.289E-02 0.319E-03
   -.286E+03 0.231E+03 -.130E+04   0.290E+03 -.233E+03 0.130E+04   -.345E+01 0.168E+01 0.349E+00   -.318E-03 -.135E-02 -.511E-02
   0.277E+03 -.124E+03 0.201E+04   -.278E+03 0.125E+03 -.201E+04   0.284E+00 -.398E+00 -.434E+01   0.385E-02 -.576E-02 0.238E-02
   0.187E+03 -.392E+02 0.276E+03   -.185E+03 0.390E+02 -.276E+03   -.201E+01 0.229E+00 0.155E+00   0.207E-02 -.149E-02 -.266E-02
   -.321E+02 -.105E+02 0.436E+03   0.315E+02 0.105E+02 -.437E+03   0.936E+00 0.286E-01 0.319E+00   0.106E-02 -.966E-03 -.985E-03
   -.289E+02 -.329E+02 -.497E+03   0.283E+02 0.325E+02 0.496E+03   0.630E+00 0.452E+00 0.103E+01   0.179E-02 0.503E-03 -.171E-02
   0.160E+03 -.215E+02 0.424E+03   -.159E+03 0.215E+02 -.425E+03   -.137E+01 0.379E+00 0.862E+00   0.164E-02 -.122E-02 0.238E-03
   0.177E+03 0.886E+01 -.474E+03   -.175E+03 -.674E+01 0.475E+03   -.124E+01 -.213E+01 -.434E+00   0.829E-04 0.472E-03 -.142E-02
   0.552E+02 -.554E+02 0.115E+03   -.531E+02 0.557E+02 -.117E+03   -.208E+01 -.319E+00 0.126E+01   0.685E-03 -.147E-02 -.239E-03
   0.113E+03 -.539E+02 0.615E+03   -.112E+03 0.539E+02 -.612E+03   -.798E+00 -.167E+00 -.279E+01   0.807E-03 0.288E-04 0.733E-03
   -.144E+03 0.450E+02 0.995E+02   0.146E+03 -.439E+02 -.101E+03   -.126E+01 -.109E+01 0.134E+01   0.232E-03 -.422E-03 -.518E-03
   -.968E+02 0.609E+02 0.663E+03   0.962E+02 -.604E+02 -.660E+03   0.486E+00 -.482E+00 -.273E+01   -.748E-03 -.296E-03 0.154E-02
   0.587E+02 -.284E+02 0.357E+03   -.596E+02 0.278E+02 -.357E+03   0.102E+01 0.731E+00 -.574E+00   0.118E-02 -.912E-03 -.358E-03
   0.584E+02 0.227E+02 -.398E+03   -.591E+02 -.230E+02 0.399E+03   0.697E+00 0.339E+00 -.601E+00   0.584E-03 0.986E-04 -.154E-02
   -.165E+03 0.418E+01 -.325E+03   0.165E+03 -.523E+01 0.324E+03   -.153E+00 0.106E+01 0.128E+01   -.776E-03 -.275E-03 -.870E-03
   -.147E+03 0.661E+01 0.393E+03   0.146E+03 -.669E+01 -.394E+03   0.241E+00 -.196E+00 0.177E+00   -.927E-03 0.857E-05 0.169E-02
   -.144E+03 -.509E+01 0.630E+03   0.143E+03 0.509E+01 -.627E+03   0.851E+00 -.815E-01 -.256E+01   -.118E-02 0.141E-02 0.200E-02
   -.171E+03 0.460E+02 0.862E+02   0.169E+03 -.461E+02 -.880E+02   0.157E+01 0.145E+00 0.179E+01   -.114E-02 -.247E-03 -.245E-03
   0.651E+02 0.211E+02 0.380E+03   -.652E+02 -.205E+02 -.380E+03   0.476E-01 -.139E+00 -.252E+00   0.744E-03 0.935E-03 0.806E-03
   0.952E+02 -.275E+02 -.516E+03   -.939E+02 0.288E+02 0.516E+03   -.126E+01 -.126E+01 0.795E+00   0.224E-02 -.213E-03 -.668E-03
   0.832E+02 -.724E+01 0.155E+03   -.839E+02 0.706E+01 -.156E+03   0.677E+00 0.179E+00 0.171E+01   0.484E-03 -.142E-02 -.123E-02
   0.304E+02 0.740E+00 0.642E+03   -.311E+02 -.789E+00 -.640E+03   0.557E+00 0.902E-02 -.245E+01   0.734E-03 0.833E-04 0.121E-02
   0.117E+03 0.230E+01 0.370E+03   -.116E+03 -.254E+01 -.370E+03   -.938E+00 0.847E+00 -.465E+00   0.131E-02 -.109E-02 -.553E-04
   0.945E+02 0.176E+02 -.429E+03   -.931E+02 -.160E+02 0.428E+03   -.143E+01 -.162E+01 0.135E+01   0.612E-03 0.135E-02 -.109E-02
   0.114E+03 0.195E+02 0.442E+03   -.114E+03 -.194E+02 -.443E+03   0.112E+00 -.333E+00 0.153E+01   0.140E-02 0.672E-03 0.797E-03
   0.102E+03 -.540E+02 -.403E+03   -.104E+03 0.538E+02 0.403E+03   0.144E+01 0.213E+00 0.763E+00   -.122E-02 -.280E-03 -.482E-03
   0.122E+03 0.365E+02 0.589E+03   -.123E+03 -.363E+02 -.586E+03   0.136E+00 -.549E+00 -.305E+01   0.137E-02 -.426E-03 0.111E-02
   0.129E+03 0.885E+02 0.835E+02   -.129E+03 -.891E+02 -.845E+02   0.109E+00 0.599E+00 0.978E+00   0.504E-03 0.136E-02 -.132E-03
   -.930E+02 -.139E+01 0.634E+03   0.932E+02 0.145E+01 -.630E+03   -.352E+00 -.520E-01 -.312E+01   -.983E-03 -.144E-02 0.147E-02
   -.104E+03 -.158E+02 0.803E+02   0.104E+03 0.168E+02 -.800E+02   0.629E+00 -.102E+01 -.295E+00   -.117E-02 0.178E-03 -.176E-03
   0.123E+03 0.313E+02 0.610E+03   -.123E+03 -.315E+02 -.607E+03   -.216E+00 0.369E+00 -.257E+01   0.119E-02 0.163E-02 0.168E-02
   0.130E+03 -.250E+02 0.956E+02   -.130E+03 0.261E+02 -.980E+02   -.188E+00 -.108E+01 0.237E+01   0.786E-03 0.832E-04 -.686E-03
   0.888E+02 -.378E+01 -.450E+03   -.886E+02 0.122E+01 0.449E+03   -.167E+00 0.256E+01 0.683E+00   0.160E-03 -.107E-02 -.286E-03
   0.107E+03 0.522E+01 0.396E+03   -.107E+03 -.542E+01 -.396E+03   0.389E+00 -.358E-01 -.327E+00   0.131E-02 0.113E-02 0.155E-02
   0.482E+02 -.748E+01 0.402E+03   -.482E+02 0.747E+01 -.403E+03   0.184E+00 0.267E+00 0.415E+00   -.669E-03 -.635E-03 0.583E-03
   -.187E+02 0.303E+02 -.406E+03   0.179E+02 -.311E+02 0.405E+03   0.780E+00 0.843E+00 0.158E+01   -.476E-03 0.465E-03 -.512E-03
   -.347E+02 -.125E+01 0.592E+03   0.350E+02 0.153E+01 -.589E+03   -.142E+00 -.202E+00 -.300E+01   -.110E-02 0.482E-03 0.122E-02
   -.109E+03 0.252E+02 0.137E+03   0.109E+03 -.256E+02 -.137E+03   0.247E+00 0.422E+00 0.138E+00   -.829E-03 0.325E-03 0.304E-03
   0.528E+02 -.528E+01 0.576E+03   -.527E+02 0.452E+01 -.572E+03   0.564E-01 0.251E+00 -.314E+01   -.101E-02 -.609E-03 0.734E-03
   0.584E+02 0.286E+02 0.450E+02   -.579E+02 -.290E+02 -.447E+02   -.451E+00 0.372E+00 -.297E+00   -.435E-03 0.149E-03 0.155E-03
   -.529E+02 0.114E+01 0.385E+03   0.532E+02 -.854E+00 -.386E+03   -.272E+00 0.505E+00 -.151E+00   -.670E-03 0.541E-03 0.122E-02
   -.495E+02 -.678E+02 -.425E+03   0.510E+02 0.673E+02 0.423E+03   -.144E+01 0.464E+00 0.199E+01   -.514E-03 -.149E-03 -.669E-03
   0.418E+02 0.358E+01 0.591E+03   -.412E+02 -.340E+01 -.587E+03   -.830E+00 -.335E+00 -.336E+01   -.137E-03 0.615E-03 0.117E-02
   0.677E+02 -.803E+02 0.882E+02   -.675E+02 0.812E+02 -.883E+02   -.251E+00 -.873E+00 0.873E-01   -.101E-02 -.300E-03 0.371E-03
   -.852E+02 -.876E+00 0.356E+03   0.847E+02 0.585E+00 -.356E+03   0.491E+00 -.467E-01 -.113E+01   -.164E-02 -.650E-03 0.343E-03
   -.133E+03 0.404E+01 -.493E+03   0.130E+03 -.447E+01 0.492E+03   0.270E+01 0.421E+00 0.122E+01   -.566E-03 0.476E-05 -.880E-03
   0.595E+02 0.399E+02 -.376E+03   -.592E+02 -.398E+02 0.377E+03   -.367E+00 -.790E-01 -.703E+00   -.653E-03 -.416E-03 -.420E-03
   0.506E+02 0.285E+01 0.382E+03   -.500E+02 -.298E+01 -.382E+03   -.635E+00 0.338E+00 -.469E+00   -.482E-03 0.801E-03 0.102E-02
   -.139E+03 -.441E+02 0.661E+03   0.139E+03 0.435E+02 -.657E+03   0.863E+00 0.212E-01 -.330E+01   -.977E-03 0.417E-03 0.177E-02
   -.810E+02 -.577E+02 0.856E+02   0.810E+02 0.569E+02 -.852E+02   -.167E-01 0.869E+00 -.422E+00   -.705E-03 0.472E-03 -.153E-03
   -.138E+03 0.333E+01 0.370E+03   0.137E+03 -.320E+01 -.371E+03   0.393E+00 0.333E+00 0.365E+00   -.151E-02 0.160E-03 0.574E-03
   -.111E+03 -.199E+02 -.478E+03   0.110E+03 0.210E+02 0.476E+03   0.134E+01 -.107E+01 0.131E+01   -.101E-02 0.372E-03 -.928E-03
   0.153E+03 -.473E+01 -.764E+03   -.154E+03 0.325E+01 0.769E+03   0.130E+01 0.147E+01 -.510E+01   -.215E-03 -.223E-02 -.505E-03
   -.116E+03 0.427E+02 -.100E+04   0.117E+03 -.474E+02 0.102E+04   -.116E+01 0.462E+01 -.170E+02   0.865E-05 0.859E-03 -.167E-02
   0.177E+03 0.233E+02 -.638E+03   -.177E+03 -.240E+02 0.644E+03   -.797E-01 0.732E+00 -.557E+01   -.263E-02 0.311E-02 -.133E-02
   -.109E+03 0.472E+01 -.842E+03   0.110E+03 -.333E+01 0.855E+03   -.453E+00 -.140E+01 -.127E+02   0.216E-03 -.102E-04 -.155E-02
   0.120E+03 0.886E+01 -.959E+03   -.120E+03 -.860E+01 0.980E+03   0.381E+00 -.266E+00 -.211E+02   0.170E-03 -.119E-02 -.204E-02
   0.124E+03 0.792E+01 -.100E+04   -.123E+03 -.581E+01 0.102E+04   -.106E+01 -.213E+01 -.216E+02   -.116E-02 0.273E-02 -.912E-03
   -.119E+03 -.155E+03 -.110E+04   0.120E+03 0.156E+03 0.112E+04   -.682E+00 -.681E+00 -.203E+02   -.136E-02 -.111E-02 -.317E-02
   0.863E+02 -.314E+02 -.109E+04   -.887E+02 0.378E+02 0.112E+04   0.237E+01 -.638E+01 -.218E+02   0.410E-02 0.164E-02 0.619E-03
   0.379E+02 -.417E+02 -.984E+03   -.353E+02 0.379E+02 0.100E+04   -.259E+01 0.378E+01 -.192E+02   -.205E-02 -.108E-02 -.645E-03
   0.880E+02 0.570E+02 -.976E+03   -.922E+02 -.508E+02 0.992E+03   0.418E+01 -.619E+01 -.156E+02   0.388E-02 -.330E-03 -.241E-02
   0.130E+03 0.832E+01 -.104E+04   -.136E+03 -.139E+02 0.106E+04   0.582E+01 0.553E+01 -.214E+02   0.669E-03 0.212E-03 -.571E-03
   -.194E+03 -.241E+02 -.114E+04   0.191E+03 0.300E+02 0.116E+04   0.300E+01 -.591E+01 -.206E+02   -.202E-02 -.186E-02 -.267E-02
   -.341E+03 -.377E+02 -.660E+03   0.344E+03 0.439E+02 0.663E+03   -.333E+01 -.626E+01 -.280E+01   -.218E-02 0.923E-04 -.847E-03
   0.124E+03 0.279E+02 -.121E+04   -.123E+03 -.269E+02 0.124E+04   -.109E+01 -.100E+01 -.248E+02   0.395E-02 -.709E-03 -.133E-02
   -.110E+03 0.622E+02 -.651E+03   0.115E+03 -.671E+02 0.657E+03   -.444E+01 0.489E+01 -.596E+01   -.367E-03 0.836E-04 -.796E-03
   0.112E+03 -.502E+02 -.212E+03   -.112E+03 0.511E+02 0.211E+03   -.125E+00 -.893E+00 0.154E+01   -.750E-03 -.130E-02 0.714E-04
   -.107E+03 -.556E+01 -.204E+03   0.102E+03 0.431E+01 0.205E+03   0.490E+01 0.123E+01 -.676E+00   -.911E-03 0.895E-03 0.280E-04
   0.117E+03 -.220E+02 0.106E+03   -.116E+03 0.232E+02 -.106E+03   -.393E+00 -.112E+01 -.163E+00   -.210E-02 -.226E-03 0.351E-03
   -.186E+03 -.471E+02 -.517E+02   0.187E+03 0.468E+02 0.525E+02   -.929E+00 0.268E+00 -.782E+00   -.193E-02 0.731E-03 -.306E-04
   0.270E+03 0.426E+02 0.125E+03   -.273E+03 -.438E+02 -.129E+03   0.302E+01 0.113E+01 0.386E+01   0.309E-02 -.538E-03 0.469E-03
   0.199E+03 0.206E+02 -.282E+03   -.200E+03 -.206E+02 0.279E+03   0.791E+00 -.697E-01 0.348E+01   0.205E-02 -.638E-03 -.465E-03
   0.988E+01 0.640E+02 -.164E+03   -.898E+01 -.661E+02 0.165E+03   -.901E+00 0.206E+01 -.117E+01   0.252E-02 -.180E-02 -.108E-03
 -----------------------------------------------------------------------------------------------
   -.999E+01 0.648E+01 0.254E+03   0.114E-12 -.853E-13 -.242E-11   0.998E+01 -.648E+01 -.254E+03   0.159E-01 0.269E-02 -.840E-02
 
 
 POSITION                                       TOTAL-FORCE (eV/Angst)
 -----------------------------------------------------------------------------------
      8.57631      8.29685     10.39845        -0.022609     -0.148799      0.071942
      8.56397      3.56411     15.04715        -0.002642     -0.014288      0.001069
      8.12535      6.12785     17.68860        -0.012447     -0.010154      0.014813
      8.51616      0.79995     12.43874         0.054774     -0.140585      0.149811
     13.39974      6.14397     15.12446         0.010050     -0.003510      0.014294
     13.49094      1.15316     10.44749        -0.015931     -0.430333     -0.066485
     10.03344      3.28428     12.67411         0.123384      0.355949     -0.543946
      9.97663      8.19472     17.65184         0.004471     -0.008885      0.006614
      7.12524      5.81577     10.15765        -0.191148     -0.471033      0.975338
      7.04892      1.16392     15.15072         0.003139     -0.003886     -0.001583
      8.51222      3.28036     10.20450         0.218820      0.092119      0.692034
      8.52026      8.30852     15.16743         0.006428     -0.006167      0.001990
     10.22263      8.06723     12.77991         0.205076      0.368273      0.005385
     10.36753      3.80776     17.66962         0.005592     -0.005849      0.004542
      5.42664      8.10481     10.20639         0.252912      0.145835      0.953124
      5.56081      3.40648     14.96603         0.004896     -0.004916      0.002569
      8.52843      5.75423     12.65640         0.270183     -0.028629     -0.128884
      8.67593      1.28433     17.55862         0.016015      0.017023     -0.021737
      3.84829      7.97317     12.47259        -0.275625      0.342592     -0.182285
      3.74237      3.50820     17.23264         0.009137     -0.013737     -0.015026
      3.80394      5.56552     14.96901         0.006598     -0.007024     -0.000839
      3.90063      0.73891     10.00000         0.499588     -0.160818      0.260356
      9.99311      5.95964     15.41286         0.000145     -0.005045     -0.001362
     10.19112      1.10470     10.13736        -0.129749      0.003561      0.478609
      6.82945      7.99424     12.66670         0.090944      0.170717     -0.231559
      6.80414      3.63202     17.41347         0.001417     -0.009335      0.006171
     11.96501      6.23636     17.50142         0.007132      0.003388      0.008834
     11.66772      1.05372     12.57547        -0.563123     -0.275414     -1.017219
     11.73919      3.33868     10.41199        -0.255536     -0.081520      0.632162
     11.72755      8.20617     15.26243         0.001947     -0.003920     -0.003074
      7.18522      3.24644     12.75390        -0.038581      0.483649     -0.618135
      7.12615      8.65918     17.82671         0.011895     -0.003494     -0.000523
      6.85495      5.78353     14.87972         0.009202     -0.006259      0.002981
      6.87795      0.97560     10.08695        -0.110069     -0.039718      0.244789
      5.51084      5.55012     12.48419        -0.320490      0.603267     -0.352073
      5.49098      1.14628     17.57859         0.003430      0.000549      0.002875
      3.51249      3.50019     12.83519        -0.024843     -0.268505     -0.097694
      3.16081      8.85095     17.55998        -0.007228     -0.004231      0.007514
      3.46798      5.87237     10.40868         0.004539     -0.342037     -0.212952
      3.48421      1.30096     15.10735         0.001343     -0.002807     -0.001007
     11.91771      8.21633     10.24534        -0.217570      0.003429      0.736331
     11.84157      3.71128     15.26325         0.001803     -0.002413      0.001672
      5.24135      3.36543     10.32679         0.115951      0.130731      0.098481
      5.23123      8.28368     15.16878        -0.000656     -0.002315      0.004633
      5.13232      6.29826     17.55728        -0.000860     -0.004594     -0.007050
      5.28930      0.99064     12.60849         0.215508     -0.230893     -0.305171
      1.60538      5.84491     12.85122         0.209313      0.252367     -0.839270
      1.34760      1.57688     17.57776         0.000440     -0.003160      0.000660
     13.72038      5.67134     10.18293         0.250491      0.083042      0.552220
     13.74894      0.97730     14.90280         0.000020      0.000131      0.003392
      1.63456      8.33987     10.36453         0.100139     -0.508427      0.077497
      1.30964      3.70706     15.26732         0.001624     -0.005103      0.002551
     13.76831      3.16119     12.53308         0.010003      0.793082     -0.450148
      0.35289      8.26898     17.82308        -0.000063      0.000430      0.003161
      1.99440      3.17314     10.17666        -0.194511     -0.156979      0.587530
      1.89685      8.14730     15.10769         0.001232      0.000216      0.001975
     13.48051      8.37930     12.86886        -0.041630     -0.338677     -0.975921
     13.33970      3.96543     18.11668         0.000916     -0.001374     -0.000226
      1.97394      5.95221     17.41313         0.003029     -0.006763      0.000958
      2.02729      0.87737     12.46815        -0.033047      0.206944     -0.587066
     10.07171      5.79402     10.14663         0.172914     -0.578765      0.289508
     10.07099      1.16574     15.00658         0.002961     -0.002712      0.000137
     11.97051      5.66181     12.67660        -0.576531      0.465327     -0.242843
     11.87469      1.25591     17.81679         0.003498     -0.004919      0.003777
      5.12666      8.60616     17.76273         0.013418     -0.008487     -0.025644
     13.55542      2.03898     18.92987         0.004624     -0.004616      0.003284
      3.46413      1.32863     17.49989         0.008542     -0.009465      0.004055
      0.05082      6.10437     18.38047         0.005645     -0.007506      0.003167
      3.67134      5.12913     18.45762         0.011262     -0.010258      0.002191
      5.30902      2.94776     18.41808         0.005065     -0.012295     -0.001918
     10.17527      0.37927     18.69432         0.009441     -0.004119     -0.002268
      7.06408      0.78567     18.74812         0.008720     -0.009116     -0.010560
      2.19252      7.70077     18.73861         0.010921     -0.009358     -0.003102
      8.53838      3.19009     18.27333         0.006505     -0.007135     -0.001774
      6.74676      5.34836     18.46717         0.005437     -0.012583      0.003898
     11.60418      4.78282     18.88839         0.003951     -0.004557      0.002094
     12.01530      8.30970     17.64086         0.008985     -0.009659      0.023940
      8.36629      7.57461     18.77026         0.007516     -0.007941      0.003740
      9.94091      6.06308     17.57146        -0.005959     -0.004560      0.004688
      3.54036      7.17034     16.31047        -0.001322     -0.007870     -0.002176
     13.54484      2.62263     16.35824         0.005979     -0.008992     -0.000655
      1.69180      5.89312     15.12189         0.003187     -0.006606      0.002052
     11.90346      0.56919     15.81745         0.003193     -0.015953      0.009988
      3.43145      3.52319     14.97819        -0.002058      0.000411     -0.002732
      6.91837      7.17540     16.42258         0.008030     -0.008165     -0.005301
      8.20758      4.97361     16.25213         0.000907     -0.005801     -0.005184
 -----------------------------------------------------------------------------------
    total drift:                                0.007102      0.003466      0.002978


--------------------------------------------------------------------------------------------------------



  FREE ENERGIE OF THE ION-ELECTRON SYSTEM (eV)
  ---------------------------------------------------
  free  energy   TOTEN  =      -721.55162483 eV

  energy  without entropy=     -721.55218549  energy(sigma->0) =     -721.55176500
 


--------------------------------------------------------------------------------------------------------


    POTLOK:  cpu time    0.1157: real time    0.1160


--------------------------------------------------------------------------------------------------------


     LOOP+:  cpu time  876.6893: real time  876.9046
    4ORBIT:  cpu time    0.0000: real time    0.0000

 total amount of memory used by VASP on root node   140044. kBytes
========================================================================

   base      :      30000. kBytes
   nonl-proj :      28901. kBytes
   fftplans  :       6516. kBytes
   grid      :      15878. kBytes
   one-center:         62. kBytes
   wavefun   :      58687. kBytes
 
  
  
 General timing and accounting informations for this job:
 ========================================================
  
                  Total CPU time used (sec):      895.687
                            User time (sec):      891.990
                          System time (sec):        3.697
                         Elapsed time (sec):      895.976
  
                   Maximum memory used (kb):      175552.
                   Average memory used (kb):           0.
  
                          Minor page faults:        52327
                          Major page faults:            0
                 Voluntary context switches:         2622
