 vasp.5.4.1 05Feb16 (build Mar 19 2020 08:54:17) complex                        
  
 executed on           IFC91_ompi date 2021.11.12  23:20:00
 running on   96 total cores
 distrk:  each k-point on   96 cores,    1 groups
 distr:  one band on NCORES_PER_BAND=  24 cores,    4 groups


--------------------------------------------------------------------------------------------------------


 INCAR:
 POTCAR:    PAW_PBE Al 04Jan2001                  
 POTCAR:    PAW_PBE Nb_sv 25May2007               
 POTCAR:    PAW_PBE Ta 17Jan2003                  
 POTCAR:    PAW_PBE Ti 08Apr2002                  
 POTCAR:   PAW_PBE Zr 08Apr2002                   
 POTCAR:    PAW_PBE O 08Apr2002                   

 ----------------------------------------------------------------------------- 
|                                                                             |
|           W    W    AA    RRRRR   N    N  II  N    N   GGGG   !!!           |
|           W    W   A  A   R    R  NN   N  II  NN   N  G    G  !!!           |
|           W    W  A    A  R    R  N N  N  II  N N  N  G       !!!           |
|           W WW W  AAAAAA  RRRRR   N  N N  II  N  N N  G  GGG   !            |
|           WW  WW  A    A  R   R   N   NN  II  N   NN  G    G                |
|           W    W  A    A  R    R  N    N  II  N    N   GGGG   !!!           |
|                                                                             |
|      For optimal performance we recommend to set                            |
|        NCORE= 4 - approx SQRT( number of cores)                             |
|      NCORE specifies how many cores store one orbital (NPAR=cpu/NCORE).     |
|      This setting can  greatly improve the performance of VASP for DFT.     |
|      The default, NPAR=number of cores might be grossly inefficient         |
|      on modern multi-core architectures or massively parallel machines.     |
|      Do your own testing !!!!                                               |
|      Unfortunately you need to use the default for GW and RPA calculations. |
|      (for HF NCORE is supported but not extensively tested yet)             |
|                                                                             |
 ----------------------------------------------------------------------------- 

 POTCAR:    PAW_PBE Al 04Jan2001                  
   VRHFIN =Al: s2p1                                                             
   LEXCH  = PE                                                                  
   EATOM  =    53.5387 eV,    3.9350 Ry                                         
                                                                                
   TITEL  = PAW_PBE Al 04Jan2001                                                
   LULTRA =        F    use ultrasoft PP ?                                      
   IUNSCR =        1    unscreen: 0-lin 1-nonlin 2-no                           
   RPACOR =    1.500    partial core radius                                     
   POMASS =   26.981; ZVAL   =    3.000    mass and valenz                      
   RCORE  =    1.900    outmost cutoff radius                                   
   RWIGS  =    2.650; RWIGS  =    1.402    wigner-seitz radius (au A)           
   ENMAX  =  240.300; ENMIN  =  180.225 eV                                      
   ICORE  =        2    local potential                                         
   LCOR   =        T    correct aug charges                                     
   LPAW   =        T    paw PP                                                  
   EAUG   =  291.052                                                            
   DEXC   =    0.000                                                            
   RMAX   =    1.939    core radius for proj-oper                               
   RAUG   =    1.300    factor for augmentation sphere                          
   RDEP   =    1.966    radius for radial grids                                 
   RDEPT  =    1.856    core radius for aug-charge                              
                                                                                
   Atomic configuration                                                         
    6 entries                                                                   
     n  l   j            E        occ.                                          
     1  0  0.50     -1511.1048   2.0000                                         
     2  0  0.50      -108.1629   2.0000                                         
     2  1  1.50       -69.6402   6.0000                                         
     3  0  0.50        -7.7528   2.0000                                         
     3  1  1.50        -2.7121   1.0000                                         
     3  2  2.50        -2.7212   0.0000                                         
   Description                                                                  
     l       E           TYP  RCUT    TYP  RCUT                                 
     0     -7.7528455     23  1.900                                             
     0     -3.3096929     23  1.900                                             
     1     -2.7120682     23  1.900                                             
     1     13.6058260     23  1.900                                             
     2     -2.7211652      7  1.900                                             
  local pseudopotential read in
  partial core-charges read in
  partial kinetic energy density read in
  atomic valenz-charges read in
  non local Contribution for L=           0  read in
    real space projection operators read in
  non local Contribution for L=           0  read in
    real space projection operators read in
  non local Contribution for L=           1  read in
    real space projection operators read in
  non local Contribution for L=           1  read in
    real space projection operators read in
    PAW grid and wavefunctions read in
 
   number of l-projection  operators is LMAX  =           4
   number of lm-projection operators is LMMAX =           8
 
 POTCAR:    PAW_PBE Nb_sv 25May2007               
   VRHFIN =Nb: 4p5s4d                                                           
   LEXCH  = PE                                                                  
   EATOM  =  1555.1913 eV,  114.3033 Ry                                         
                                                                                
   TITEL  = PAW_PBE Nb_sv 25May2007                                             
   LULTRA =        F    use ultrasoft PP ?                                      
   IUNSCR =        1    unscreen: 0-lin 1-nonlin 2-no                           
   RPACOR =    1.800    partial core radius                                     
   POMASS =   92.910; ZVAL   =   13.000    mass and valenz                      
   RCORE  =    2.400    outmost cutoff radius                                   
   RWIGS  =    2.400; RWIGS  =    1.270    wigner-seitz radius (au A)           
   ENMAX  =  293.235; ENMIN  =  219.927 eV                                      
   ICORE  =        3    local potential                                         
   LCOR   =        T    correct aug charges                                     
   LPAW   =        T    paw PP                                                  
   EAUG   =  455.659                                                            
   DEXC   =    0.000                                                            
   RMAX   =    2.456    core radius for proj-oper                               
   RAUG   =    1.300    factor for augmentation sphere                          
   RDEP   =    2.451    radius for radial grids                                 
   RDEPT  =    1.956    core radius for aug-charge                              
                                                                                
   Atomic configuration                                                         
   11 entries                                                                   
     n  l   j            E        occ.                                          
     1  0  0.50    -18805.2457   2.0000                                         
     2  0  0.50     -2630.2869   2.0000                                         
     2  1  1.50     -2348.4046   6.0000                                         
     3  0  0.50      -438.8757   2.0000                                         
     3  1  1.50      -346.7588   6.0000                                         
     3  2  2.50      -196.2560  10.0000                                         
     4  0  0.50       -58.3859   2.0000                                         
     5  0  0.50        -3.9816   1.0000                                         
     4  1  1.50       -34.5141   6.0000                                         
     4  2  2.50        -3.0408   4.0000                                         
     4  3  2.50        -1.3606   0.0000                                         
   Description                                                                  
     l       E           TYP  RCUT    TYP  RCUT                                 
     0    -58.3859094     23  2.200                                             
     0     -3.9816262     23  2.200                                             
     1    -34.5140738     23  2.200                                             
     1     13.6058260     23  2.200                                             
     2     -3.0408010     23  2.200                                             
     2     -0.1283038     23  2.200                                             
     3     -1.3605826     23  2.400                                             
  local pseudopotential read in
  partial core-charges read in
  partial kinetic energy density read in
  atomic valenz-charges read in
  non local Contribution for L=           0  read in
    real space projection operators read in
  non local Contribution for L=           0  read in
    real space projection operators read in
  non local Contribution for L=           1  read in
    real space projection operators read in
  non local Contribution for L=           1  read in
    real space projection operators read in
  non local Contribution for L=           2  read in
    real space projection operators read in
  non local Contribution for L=           2  read in
    real space projection operators read in
    PAW grid and wavefunctions read in
 
   number of l-projection  operators is LMAX  =           6
   number of lm-projection operators is LMMAX =          18
 
 POTCAR:    PAW_PBE Ta 17Jan2003                  
   VRHFIN =Ta:  6s5d                                                            
   LEXCH  = PE                                                                  
   EATOM  =   130.6506 eV,    9.6025 Ry                                         
                                                                                
   TITEL  = PAW_PBE Ta 17Jan2003                                                
   LULTRA =        F    use ultrasoft PP ?                                      
   IUNSCR =        1    unscreen: 0-lin 1-nonlin 2-no                           
   RPACOR =    2.330    partial core radius                                     
   POMASS =  180.948; ZVAL   =    5.000    mass and valenz                      
   RCORE  =    2.900    outmost cutoff radius                                   
   RWIGS  =    2.840; RWIGS  =    1.503    wigner-seitz radius (au A)           
   ENMAX  =  223.667; ENMIN  =  167.750 eV                                      
   RCLOC  =    2.205    cutoff for local pot                                    
   LCOR   =        T    correct aug charges                                     
   LPAW   =        T    paw PP                                                  
   EAUG   =  332.075                                                            
   DEXC   =    0.000                                                            
   RMAX   =    2.970    core radius for proj-oper                               
   RAUG   =    1.300    factor for augmentation sphere                          
   RDEP   =    3.060    radius for radial grids                                 
   RDEPT  =    2.354    core radius for aug-charge                              
                                                                                
   Atomic configuration                                                         
   16 entries                                                                   
     n  l   j            E        occ.                                          
     1  0  0.50    -67341.2807   2.0000                                         
     2  0  0.50    -11566.9376   2.0000                                         
     2  1  1.50    -10134.1182   6.0000                                         
     3  0  0.50     -2648.5620   2.0000                                         
     3  1  1.50     -2222.6012   6.0000                                         
     3  2  2.50     -1726.3120  10.0000                                         
     4  0  0.50      -538.6961   2.0000                                         
     4  1  1.50      -399.0129   6.0000                                         
     4  2  2.50      -220.3959  10.0000                                         
     4  3  3.50       -23.0374  14.0000                                         
     5  0  0.50       -71.2901   2.0000                                         
     5  1  1.50       -37.8225   6.0000                                         
     5  2  2.50        -2.6455   4.0000                                         
     6  0  0.50        -4.9623   1.0000                                         
     6  1  1.50        -1.3606   0.0000                                         
     5  3  2.50        -1.3606   0.0000                                         
   Description                                                                  
     l       E           TYP  RCUT    TYP  RCUT                                 
     2     -2.6455043     23  2.500                                             
     2     -0.6258895     23  2.500                                             
     0     -4.9622780     23  2.500                                             
     0      4.7531321     23  2.500                                             
     1     -1.3605826     23  2.900                                             
     1     27.2116520     23  2.900                                             
  local pseudopotential read in
  partial core-charges read in
  partial kinetic energy density read in
  atomic valenz-charges read in
  non local Contribution for L=           2  read in
    real space projection operators read in
  non local Contribution for L=           2  read in
    real space projection operators read in
  non local Contribution for L=           0  read in
    real space projection operators read in
  non local Contribution for L=           0  read in
    real space projection operators read in
  non local Contribution for L=           1  read in
    real space projection operators read in
  non local Contribution for L=           1  read in
    real space projection operators read in
    PAW grid and wavefunctions read in
 
   number of l-projection  operators is LMAX  =           6
   number of lm-projection operators is LMMAX =          18
 
 POTCAR:    PAW_PBE Ti 08Apr2002                  
   VRHFIN =Ti: d3 s1                                                            
   LEXCH  = PE                                                                  
   EATOM  =    94.7928 eV,    6.9671 Ry                                         
                                                                                
   TITEL  = PAW_PBE Ti 08Apr2002                                                
   LULTRA =        F    use ultrasoft PP ?                                      
   IUNSCR =        1    unscreen: 0-lin 1-nonlin 2-no                           
   RPACOR =    2.200    partial core radius                                     
   POMASS =   47.880; ZVAL   =    4.000    mass and valenz                      
   RCORE  =    2.800    outmost cutoff radius                                   
   RWIGS  =    2.500; RWIGS  =    1.323    wigner-seitz radius (au A)           
   ENMAX  =  178.330; ENMIN  =  133.747 eV                                      
   RCLOC  =    2.215    cutoff for local pot                                    
   LCOR   =        T    correct aug charges                                     
   LPAW   =        T    paw PP                                                  
   EAUG   =  328.883                                                            
   DEXC   =    0.000                                                            
   RMAX   =    2.868    core radius for proj-oper                               
   RAUG   =    1.300    factor for augmentation sphere                          
   RDEP   =    2.885    radius for radial grids                                 
   RDEPT  =    2.320    core radius for aug-charge                              
                                                                                
   Atomic configuration                                                         
    9 entries                                                                   
     n  l   j            E        occ.                                          
     1  0  0.50     -4865.3608   2.0000                                         
     2  0  0.50      -533.1367   2.0000                                         
     2  1  1.50      -440.5031   6.0000                                         
     3  0  0.50       -59.3186   2.0000                                         
     3  1  1.50       -35.7012   6.0000                                         
     3  2  2.50        -1.9157   3.0000                                         
     4  0  0.50        -3.7291   1.0000                                         
     4  1  1.50        -4.0817   0.0000                                         
     4  3  2.50        -1.3606   0.0000                                         
   Description                                                                  
     l       E           TYP  RCUT    TYP  RCUT                                 
     2     -1.9156924     23  2.800                                             
     2     -0.4062961     23  2.800                                             
     0     -3.7290832     23  2.800                                             
     0     20.4087390     23  2.800                                             
     1     -5.4423304     23  2.800                                             
  local pseudopotential read in
  partial core-charges read in
  partial kinetic energy density read in
  atomic valenz-charges read in
  non local Contribution for L=           2  read in
    real space projection operators read in
  non local Contribution for L=           2  read in
    real space projection operators read in
  non local Contribution for L=           0  read in
    real space projection operators read in
  non local Contribution for L=           0  read in
    real space projection operators read in
  non local Contribution for L=           1  read in
    real space projection operators read in
    PAW grid and wavefunctions read in
 
   number of l-projection  operators is LMAX  =           5
   number of lm-projection operators is LMMAX =          15
 
 POTCAR:   PAW_PBE Zr 08Apr2002                   
   VRHFIN =Zr: 5s4d5p                                                           
   LEXCH  = PE                                                                  
   EATOM  =    77.8472 eV,    5.7216 Ry                                         
                                                                                
   TITEL  = PAW_PBE Zr 08Apr2002                                                
   LULTRA =        F    use ultrasoft PP ?                                      
   IUNSCR =        1    unscreen: 0-lin 1-nonlin 2-no                           
   RPACOR =    2.200    partial core radius                                     
   POMASS =   91.224; ZVAL   =    4.000    mass and valenz                      
   RCORE  =    3.000    outmost cutoff radius                                   
   RWIGS  =    3.070; RWIGS  =    1.625    wigner-seitz radius (au A)           
   ENMAX  =  154.632; ENMIN  =  115.974 eV                                      
   RCLOC  =    2.213    cutoff for local pot                                    
   LCOR   =        T    correct aug charges                                     
   LPAW   =        T    paw PP                                                  
   EAUG   =  243.217                                                            
   DEXC   =    -.082                                                            
   RMAX   =    3.708    core radius for proj-oper                               
   RAUG   =    1.300    factor for augmentation sphere                          
   RDEP   =    3.146    radius for radial grids                                 
   QCUT   =   -3.371; QGAM   =    6.742    optimization parameters              
                                                                                
   Description                                                                  
     l     E      TYP  RCUT    TYP  RCUT                                        
     2   .000     23  3.000                                                     
     2   .000     23  3.000                                                     
     0   .000     23  3.000                                                     
     0  2.000     23  3.000                                                     
     1  -.400     23  3.000                                                     
     3   .000      7   .000                                                     
  local pseudopotential read in
  partial core-charges read in
  atomic valenz-charges read in
  non local Contribution for L=           2  read in
    real space projection operators read in
  non local Contribution for L=           2  read in
    real space projection operators read in
  non local Contribution for L=           0  read in
    real space projection operators read in
  non local Contribution for L=           0  read in
    real space projection operators read in
  non local Contribution for L=           1  read in
    real space projection operators read in
    PAW grid and wavefunctions read in
 
   number of l-projection  operators is LMAX  =           5
   number of lm-projection operators is LMMAX =          15
 
 POTCAR:    PAW_PBE O 08Apr2002                   
   VRHFIN =O: s2p4                                                              
   LEXCH  = PE                                                                  
   EATOM  =   432.3788 eV,   31.7789 Ry                                         
                                                                                
   TITEL  = PAW_PBE O 08Apr2002                                                 
   LULTRA =        F    use ultrasoft PP ?                                      
   IUNSCR =        1    unscreen: 0-lin 1-nonlin 2-no                           
   RPACOR =    1.200    partial core radius                                     
   POMASS =   16.000; ZVAL   =    6.000    mass and valenz                      
   RCORE  =    1.520    outmost cutoff radius                                   
   RWIGS  =    1.550; RWIGS  =    0.820    wigner-seitz radius (au A)           
   ENMAX  =  400.000; ENMIN  =  300.000 eV                                      
   ICORE  =        2    local potential                                         
   LCOR   =        T    correct aug charges                                     
   LPAW   =        T    paw PP                                                  
   EAUG   =  605.392                                                            
   DEXC   =    0.000                                                            
   RMAX   =    1.553    core radius for proj-oper                               
   RAUG   =    1.300    factor for augmentation sphere                          
   RDEP   =    1.550    radius for radial grids                                 
   RDEPT  =    1.329    core radius for aug-charge                              
                                                                                
   Atomic configuration                                                         
    4 entries                                                                   
     n  l   j            E        occ.                                          
     1  0  0.50      -514.6923   2.0000                                         
     2  0  0.50       -23.9615   2.0000                                         
     2  1  0.50        -9.0305   4.0000                                         
     3  2  1.50        -9.5241   0.0000                                         
   Description                                                                  
     l       E           TYP  RCUT    TYP  RCUT                                 
     0    -23.9615318     23  1.200                                             
     0     -9.5240782     23  1.200                                             
     1     -9.0304911     23  1.520                                             
     1      8.1634956     23  1.520                                             
     2     -9.5240782      7  1.500                                             
  local pseudopotential read in
  partial core-charges read in
  partial kinetic energy density read in
  kinetic energy density of atom read in
  atomic valenz-charges read in
  non local Contribution for L=           0  read in
    real space projection operators read in
  non local Contribution for L=           0  read in
    real space projection operators read in
  non local Contribution for L=           1  read in
    real space projection operators read in
  non local Contribution for L=           1  read in
    real space projection operators read in
    PAW grid and wavefunctions read in
 
   number of l-projection  operators is LMAX  =           4
   number of lm-projection operators is LMMAX =           8
 
 Optimization of the real space projectors (new method)

 maximal supplied QI-value         = 19.84
 optimisation between [QCUT,QGAM] = [ 12.50, 25.00] = [ 43.76,175.03] Ry 
 Optimized for a Real-space Cutoff    1.06 Angstroem

   l    n(q)    QCUT    max X(q) W(low)/X(q) W(high)/X(q)  e(spline) 
   0      8    12.501   176.870    0.16E-03    0.12E-03    0.66E-07
   0      8    12.501   105.762    0.15E-03    0.12E-03    0.64E-07
   1      7    12.501    55.370    0.36E-03    0.38E-03    0.67E-07
   1      7    12.501    20.208    0.32E-03    0.35E-03    0.64E-07
 Optimization of the real space projectors (new method)

 maximal supplied QI-value         = 15.68
 optimisation between [QCUT,QGAM] = [ 12.55, 25.10] = [ 44.09,176.36] Ry 
 Optimized for a Real-space Cutoff    1.56 Angstroem

   l    n(q)    QCUT    max X(q) W(low)/X(q) W(high)/X(q)  e(spline) 
   0     12    12.548    10.201    0.21E-04    0.36E-05    0.83E-07
   0     12    12.548     8.174    0.31E-04    0.62E-05    0.15E-06
   1     11    12.548     3.488    0.79E-05    0.23E-04    0.21E-06
   1     11    12.548     4.917    0.56E-04    0.13E-03    0.11E-05
   2     11    12.548   153.744    0.25E-03    0.10E-03    0.15E-05
   2     11    12.548   126.342    0.25E-03    0.10E-03    0.15E-05
 Optimization of the real space projectors (new method)

 maximal supplied QI-value         = 12.85
 optimisation between [QCUT,QGAM] = [ 12.46, 25.06] = [ 43.51,175.83] Ry 
 Optimized for a Real-space Cutoff    1.56 Angstroem

   l    n(q)    QCUT    max X(q) W(low)/X(q) W(high)/X(q)  e(spline) 
   2     11    12.465    62.315    0.36E-03    0.20E-03    0.15E-05
   2     11    12.465    52.185    0.36E-03    0.20E-03    0.15E-05
   0     12    12.465   103.837    0.22E-04    0.37E-05    0.56E-06
   0     12    12.465    59.728    0.20E-04    0.34E-05    0.51E-06
   1     11    12.465    13.958    0.44E-03    0.81E-03    0.81E-05
   1     11    12.465     8.441    0.31E-03    0.56E-03    0.56E-05
 Optimization of the real space projectors (new method)

 maximal supplied QI-value         = 13.42
 optimisation between [QCUT,QGAM] = [ 12.48, 25.09] = [ 43.60,176.28] Ry 
 Optimized for a Real-space Cutoff    1.56 Angstroem

   l    n(q)    QCUT    max X(q) W(low)/X(q) W(high)/X(q)  e(spline) 
   2     11    12.478    49.363    0.45E-03    0.34E-03    0.89E-06
   2     11    12.478    47.669    0.44E-03    0.33E-03    0.87E-06
   0     12    12.478    26.374    0.17E-03    0.37E-04    0.21E-05
   0     12    12.478    11.549    0.13E-03    0.31E-04    0.17E-05
   1     11    12.478     9.492    0.91E-05    0.64E-04    0.34E-06
 Optimization of the real space projectors (new method)

 maximal supplied QI-value         = 12.47
 optimisation between [QCUT,QGAM] = [ 12.47, 25.07] = [ 43.56,175.99] Ry 
 Optimized for a Real-space Cutoff    1.70 Angstroem

   l    n(q)    QCUT    max X(q) W(low)/X(q) W(high)/X(q)  e(spline) 
   2     12    12.472     5.149    0.23E-04    0.12E-05    0.19E-06
   2     12    12.472    48.417    0.26E-03    0.15E-03    0.35E-05
   0     13    12.472    27.113    0.15E-04    0.46E-05    0.14E-06
   0     13    12.472    33.957    0.20E-04    0.33E-04    0.12E-05
   1     12    12.472    13.771    0.11E-04    0.23E-05    0.34E-06
 WARNING: PSMAXN for non-local potential too small
          PSMAXN should be >   12.5490833729506       NTYP=           5
 Optimization of the real space projectors (new method)

 maximal supplied QI-value         = 24.76
 optimisation between [QCUT,QGAM] = [ 12.38, 25.00] = [ 42.90,175.06] Ry 
 Optimized for a Real-space Cutoff    1.13 Angstroem

   l    n(q)    QCUT    max X(q) W(low)/X(q) W(high)/X(q)  e(spline) 
   0      8    12.378    20.381    0.16E-03    0.54E-05    0.27E-06
   0      8    12.378    15.268    0.17E-03    0.61E-05    0.29E-06
   1      8    12.378     5.964    0.38E-03    0.23E-03    0.28E-06
   1      8    12.378     5.382    0.33E-03    0.20E-03    0.25E-06
  PAW_PBE Al 04Jan2001                  :
 energy of atom  1       EATOM=  -53.5387
 kinetic energy error for atom=    0.0002 (will be added to EATOM!!)
  PAW_PBE Nb_sv 25May2007               :
 energy of atom  2       EATOM=-1555.1913
 kinetic energy error for atom=    0.0037 (will be added to EATOM!!)
  PAW_PBE Ta 17Jan2003                  :
 energy of atom  3       EATOM= -130.6506
 kinetic energy error for atom=    0.0004 (will be added to EATOM!!)
  PAW_PBE Ti 08Apr2002                  :
 energy of atom  4       EATOM=  -94.7928
 kinetic energy error for atom=    0.0001 (will be added to EATOM!!)
 PAW_PBE Zr 08Apr2002                   :
 energy of atom  5       EATOM=  -77.8472
 kinetic energy error for atom=    0.0001 (will be added to EATOM!!)
  PAW_PBE O 08Apr2002                   :
 energy of atom  6       EATOM= -432.3788
 kinetic energy error for atom=    0.0168 (will be added to EATOM!!)
 
 
 POSCAR: Al Nb Ta Ti Zr                          
  positions in direct lattice
  velocities in cartesian coordinates
  No initial velocities read in
 exchange correlation table for  LEXCH =        8
   RHO(1)=    0.500       N(1)  =     2000
   RHO(2)=  100.500       N(2)  =     4000
 


--------------------------------------------------------------------------------------------------------


 ion  position               nearest neighbor table
   1  0.623  0.867  0.376-  34 2.83  25 2.88  24 2.88   9 2.88  13 2.90   4 2.91  61 2.93  15 3.16
                            41 3.35  17 3.40
   2  0.622  0.391  0.548-  23 2.80  33 2.80  31 2.81  26 2.82  14 2.82  10 2.90   7 2.92  62 2.96
                            18 3.09  16 3.12   3 3.13  17 3.21  42 3.35
   3  0.617  0.631  0.625-  32 2.80   8 2.86  23 2.87  14 2.88  33 2.88  26 2.93  27 3.05   2 3.13
                            45 3.22
   4  0.618  0.084  0.450-  31 2.80  24 2.86  34 2.87  10 2.88  13 2.88   1 2.91  25 2.92   7 2.92
                            62 2.95  28 3.16  12 3.17  46 3.24
   5  0.980  0.639  0.553-  27 2.77  30 2.81  59 2.92  42 2.93  56 2.95  52 3.07  63 3.07  54 3.10
                            47 3.11  58 3.16  57 3.33
   6  0.980  0.121  0.378-  29 2.80  28 2.80  53 2.91  41 2.96  51 3.05  55 3.05  60 3.08  57 3.37

   7  0.729  0.343  0.458-  28 2.77  29 2.83  31 2.85  17 2.89  11 2.90   2 2.92   4 2.92  62 3.01
                            42 3.04  63 3.07
   8  0.723  0.888  0.622-  30 2.65  32 2.72  12 2.74  27 2.79   3 2.86  18 2.87  64 3.02  62 3.27

   9  0.517  0.608  0.367-  35 2.84  15 2.85  17 2.87   1 2.88  11 2.89  61 2.95  43 3.10
  10  0.517  0.128  0.539-  18 2.75  16 2.79  36 2.82  12 2.84   4 2.88   2 2.90  46 2.96  31 2.96
                            62 2.99  44 3.14
  11  0.618  0.343  0.369-  24 2.75  34 2.83  31 2.87   9 2.89   7 2.90  61 2.96  43 3.27
  12  0.619  0.870  0.537-  32 2.70  13 2.70   8 2.74  23 2.79  25 2.80  10 2.84  33 2.91  62 2.94
                             4 3.17  44 3.33
  13  0.742  0.843  0.462-  12 2.70  30 2.85  17 2.87   4 2.88   1 2.90  28 2.94  23 2.95  63 2.98
                            41 3.05  57 3.27  62 3.44
  14  0.745  0.395  0.629-  27 2.74  64 2.81   2 2.82   3 2.88  18 2.88  42 2.89  58 3.03
  15  0.394  0.847  0.369-  22 2.68  19 2.76  25 2.83  34 2.84   9 2.85  39 2.98   1 3.16  46 3.43

  16  0.397  0.362  0.540-  20 2.66  10 2.79  26 2.80  31 2.80  21 2.82  33 2.84  37 2.88  40 3.02
                             2 3.12  46 3.41
  17  0.619  0.602  0.458-  23 2.80  25 2.81  33 2.82  31 2.85   9 2.87  13 2.87   7 2.89  61 2.95
                            35 3.03   2 3.21   1 3.40  63 3.44
  18  0.624  0.151  0.623-  10 2.75  26 2.81  32 2.81  62 2.81   8 2.87  14 2.88  36 2.89   2 3.09
                            64 3.13
  19  0.279  0.834  0.451-  15 2.76  35 2.94  46 2.96  39 2.97  25 2.99  44 3.04  60 3.07  51 3.08
                            47 3.12  21 3.24  56 3.24
  20  0.295  0.341  0.622-  65 2.04  66 2.22  16 2.66  36 2.67  26 2.80  40 2.91  48 3.01  52 3.06
                            45 3.12
  21  0.277  0.601  0.536-  65 2.10  16 2.82  45 2.88  35 2.90  44 2.93  52 2.94  47 2.97  37 3.02
                            33 3.04  56 3.12  19 3.24  59 3.36
  22  0.283  0.077  0.361-  15 2.68  46 2.97  43 2.97  34 2.99  51 3.02  55 3.10  60 3.10
  23  0.736  0.632  0.540-  30 2.74  27 2.75  12 2.79  17 2.80   2 2.80   3 2.87  63 2.93  13 2.95
                            42 2.97
  24  0.740  0.115  0.366-  29 2.73  11 2.75  28 2.85   4 2.86   1 2.88  41 3.00
  25  0.496  0.836  0.458-  35 2.78  12 2.80  17 2.81  15 2.83   1 2.88   4 2.92  19 2.99  46 2.99
                            44 3.00  33 3.04
  26  0.496  0.379  0.628-  66 2.03  36 2.71  20 2.80  16 2.80  18 2.81   2 2.82   3 2.93  45 2.96

  27  0.838  0.648  0.625-  14 2.74  23 2.75   5 2.77  58 2.77   8 2.79  30 2.94   3 3.05  54 3.09
                            42 3.41
  28  0.847  0.110  0.455-   7 2.77  62 2.78   6 2.80  24 2.85  57 2.90  13 2.94  53 2.98  29 3.15
                             4 3.16  50 3.22  41 3.36
  29  0.852  0.349  0.376-  24 2.73   6 2.80   7 2.83  53 2.94  61 2.98  49 3.07  28 3.15  63 3.25

  30  0.849  0.865  0.550-   8 2.65  23 2.74  54 2.79   5 2.81  13 2.85  27 2.94  57 2.94  62 2.99
                            50 3.14  64 3.54
  31  0.522  0.339  0.461-  16 2.80   4 2.80   2 2.81  17 2.85   7 2.85  35 2.86  11 2.87  46 2.95
                            10 2.96  43 3.11
  32  0.526  0.893  0.623-  36 2.67  12 2.70   8 2.72   3 2.80  18 2.81  44 2.90  45 3.11
  33  0.498  0.621  0.539-   2 2.80  35 2.80  17 2.82  16 2.84  45 2.86   3 2.88  44 2.89  12 2.91
                            21 3.04  25 3.04
  34  0.499  0.102  0.365-  11 2.83   1 2.83  15 2.84   4 2.87  43 2.91  46 2.98  22 2.99
  35  0.400  0.580  0.451-  25 2.78  33 2.80   9 2.84  31 2.86  37 2.88  21 2.90  39 2.93  19 2.94
                            17 3.03  43 3.08
  36  0.415  0.121  0.627-  32 2.67  20 2.67  26 2.71  10 2.82  18 2.89  38 3.07  40 3.12  44 3.30

  37  0.255  0.366  0.464-  16 2.88  35 2.88  47 3.02  21 3.02  60 3.04  43 3.05  55 3.08  46 3.08
                            52 3.09  40 3.28  39 3.39
  38  0.244  0.915  0.626-  56 2.84  44 2.88  59 2.94  40 2.95  48 3.00  36 3.07  45 3.24
  39  0.252  0.614  0.376-  35 2.93  19 2.97  15 2.98  47 3.07  43 3.07  51 3.07  55 3.08  37 3.39
                            49 3.53
  40  0.251  0.129  0.550-  20 2.91  38 2.95  48 2.99  16 3.02  44 3.05  52 3.09  60 3.11  56 3.11
                            36 3.12  46 3.19  37 3.28  50 3.56
  41  0.865  0.859  0.370-   6 2.96  24 3.00  61 3.05  13 3.05  57 3.06  49 3.12   1 3.35  28 3.36
                            51 3.49  63 3.53
  42  0.865  0.383  0.543-  14 2.89   5 2.93  23 2.97  58 3.02  62 3.03   7 3.04  50 3.06  63 3.09
                            53 3.15   2 3.35  64 3.41  27 3.41  52 3.58
  43  0.381  0.352  0.373-  34 2.91  22 2.97  37 3.05  39 3.07  35 3.08   9 3.10  31 3.11  55 3.26
                            11 3.27  46 3.29
  44  0.379  0.869  0.548-  38 2.88  33 2.89  32 2.90  21 2.93  25 3.00  45 3.04  19 3.04  40 3.05
                            10 3.14  36 3.30  12 3.33  56 3.39  46 3.41
  45  0.383  0.642  0.625-  66 2.22  65 2.27  33 2.86  21 2.88  26 2.96  44 3.04  32 3.11  20 3.12
                             3 3.22  38 3.24  59 3.54
  46  0.384  0.104  0.456-  31 2.95  10 2.96  19 2.96  22 2.97  34 2.98  25 2.99  37 3.08  40 3.19
                             4 3.24  60 3.27  43 3.29  44 3.41  16 3.41  15 3.43
  47  0.117  0.611  0.465-  21 2.97  37 3.02  39 3.07   5 3.11  19 3.12  53 3.14  49 3.15  56 3.16
                            57 3.17  52 3.23  63 3.42  51 3.52  55 3.80
  48  0.115  0.167  0.633-  50 2.98  40 2.99  38 3.00  20 3.01  52 3.09  54 3.18  58 3.24  64 3.66

  49  0.996  0.593  0.368-  63 3.05  29 3.07  41 3.12  47 3.15  51 3.16  55 3.23  53 3.44  39 3.53
                            61 3.65  57 3.82
  50  0.992  0.120  0.546-  48 2.98  42 3.06  54 3.07  30 3.14  64 3.14  52 3.20  28 3.22  56 3.22
                            57 3.23  53 3.26  60 3.39  62 3.56  40 3.56
  51  0.119  0.872  0.375-  60 3.00  22 3.02   6 3.05  39 3.07  19 3.08  57 3.16  49 3.16  41 3.49
                            47 3.52
  52  0.124  0.395  0.554-  65 2.53  21 2.94  20 3.06   5 3.07  40 3.09  48 3.09  37 3.09  50 3.20
                            47 3.23  58 3.25  59 3.26  53 3.34  42 3.58
  53  1.000  0.331  0.453-   6 2.91  29 2.94  28 2.98  60 3.06  63 3.08  55 3.09  47 3.14  42 3.15
                            50 3.26  52 3.34  49 3.44
  54  0.986  0.892  0.623-  30 2.79  59 2.96  56 3.05  64 3.06  50 3.07  27 3.09   5 3.10  48 3.18

  55  0.145  0.332  0.368-   6 3.05  37 3.08  39 3.08  53 3.09  22 3.10  49 3.23  60 3.24  43 3.26
                            47 3.80
  56  0.133  0.852  0.543-  38 2.84   5 2.95  57 3.03  59 3.03  54 3.05  40 3.11  21 3.12  47 3.16
                            50 3.22  19 3.24  44 3.39  60 3.43
  57  0.979  0.876  0.465-  28 2.90  30 2.94  56 3.03  41 3.06  63 3.11  60 3.13  51 3.16  47 3.17
                            50 3.23  13 3.27   5 3.33   6 3.37  49 3.82
  58  0.963  0.425  0.640-  27 2.77  42 3.02  14 3.03  64 3.12   5 3.16  59 3.18  48 3.24  52 3.25

  59  0.126  0.658  0.629-  65 2.07   5 2.92  38 2.94  54 2.96  56 3.03  58 3.18  52 3.26  21 3.36
                            45 3.54
  60  0.147  0.092  0.451-  51 3.00  37 3.04  53 3.06  19 3.07   6 3.08  22 3.10  40 3.11  57 3.13
                            55 3.24  46 3.27  50 3.39  56 3.43
  61  0.731  0.606  0.367-   1 2.93  17 2.95   9 2.95  11 2.96  29 2.98  41 3.05  63 3.17  49 3.65

  62  0.734  0.129  0.538-  28 2.78  18 2.81  12 2.94   4 2.95   2 2.96  10 2.99  30 2.99   7 3.01
                            42 3.03  64 3.11   8 3.27  13 3.44  50 3.56
  63  0.869  0.592  0.458-  23 2.93  13 2.98  49 3.05   7 3.07   5 3.07  53 3.08  42 3.09  57 3.11
                            61 3.17  29 3.25  47 3.42  17 3.44  41 3.53
  64  0.850  0.143  0.634-  14 2.81   8 3.02  54 3.06  62 3.11  58 3.12  18 3.13  50 3.14  42 3.41
                            30 3.54  48 3.66
  65  0.241  0.534  0.606-  20 2.04  59 2.07  21 2.10  45 2.27  52 2.53
  66  0.392  0.455  0.673-  26 2.03  20 2.22  45 2.22
 
  LATTYP: Found a simple orthorhombic cell.
 ALAT       =     9.5644817352
 B/A-ratio  =     1.4398428730
 C/A-ratio  =     2.8922184390
  
  Lattice vectors:
  
 A1 = (   0.0000000000,  -9.5644817352,   0.0000000000)
 A2 = ( -13.7713508606,   0.0000000000,   0.0000000000)
 A3 = (   0.0000000000,   0.0000000000, -27.6625704340)


Analysis of symmetry for initial positions (statically):
=====================================================================
 Subroutine PRICEL returns:
 Original cell was already a primitive cell.
 

 Routine SETGRP: Setting up the symmetry group for a 
 simple orthorhombic supercell.


 Subroutine GETGRP returns: Found  1 space group operations
 (whereof  1 operations were pure point group operations)
 out of a pool of  8 trial point group operations.


The static configuration has the point symmetry C_1 .


Analysis of symmetry for dynamics (positions and initial velocities):
=====================================================================
 Subroutine PRICEL returns:
 Original cell was already a primitive cell.
 

 Routine SETGRP: Setting up the symmetry group for a 
 simple orthorhombic supercell.


 Subroutine GETGRP returns: Found  1 space group operations
 (whereof  1 operations were pure point group operations)
 out of a pool of  8 trial point group operations.


The dynamic configuration has the point symmetry C_1 .


Analysis of constrained symmetry for selective dynamics:
=====================================================================
 Subroutine PRICEL returns:
 Original cell was already a primitive cell.
 

 Routine SETGRP: Setting up the symmetry group for a 
 simple orthorhombic supercell.


 Subroutine GETGRP returns: Found  1 space group operations
 (whereof  1 operations were pure point group operations)
 out of a pool of  8 trial point group operations.


The constrained configuration has the point symmetry C_1 .


 Subroutine INISYM returns: Found  1 space group operations
 (whereof  1 operations are pure point group operations),
 and found     1 'primitive' translations

 
 
 KPOINTS: k-points                                

Automatic generation of k-mesh.
Space group operators:
 irot       det(A)        alpha          n_x          n_y          n_z        tau_x        tau_y        tau_z
    1     1.000000     0.000000     1.000000     0.000000     0.000000     0.000000     0.000000     0.000000
 
 Subroutine IBZKPT returns following result:
 ===========================================
 
 Found      5 irreducible k-points:
 
 Following reciprocal coordinates:
            Coordinates               Weight
  0.000000  0.000000  0.000000      1.000000
  0.333333  0.000000  0.000000      2.000000
  0.000000  0.333333  0.000000      2.000000
  0.333333  0.333333  0.000000      2.000000
 -0.333333  0.333333  0.000000      2.000000
 
 Following cartesian coordinates:
            Coordinates               Weight
  0.000000  0.000000  0.000000      1.000000
  0.024205  0.000000  0.000000      2.000000
  0.000000  0.034851  0.000000      2.000000
  0.024205  0.034851  0.000000      2.000000
 -0.024205  0.034851  0.000000      2.000000
 


--------------------------------------------------------------------------------------------------------




 Dimension of arrays:
   k-points           NKPTS =      5   k-points in BZ     NKDIM =      5   number of bands    NBANDS=    216
   number of dos      NEDOS =    301   number of ions     NIONS =     66
   non local maximal  LDIM  =      6   non local SUM 2l+1 LMDIM =     18
   total plane-waves  NPLWV = 846720
   max r-space proj   IRMAX =   4874   max aug-charges    IRDMAX=  25433
   dimension x,y,z NGX =    84 NGY =   60 NGZ =  168
   dimension x,y,z NGXF=   168 NGYF=  120 NGZF=  336
   support grid    NGXF=   168 NGYF=  120 NGZF=  336
   ions per type =               6  10   4  18  26   2
 NGX,Y,Z   is equivalent  to a cutoff of  10.14, 10.43, 10.10 a.u.
 NGXF,Y,Z  is equivalent  to a cutoff of  20.28, 20.86, 20.19 a.u.


 I would recommend the setting:
   dimension x,y,z NGX =    83 NGY =   57 NGZ =  166
 SYSTEM =  (110) surface                           
 POSCAR =  Al Nb Ta Ti Zr                          

 Startparameter for this run:
   NWRITE =      2    write-flag & timer
   PREC   = normal    normal or accurate (medium, high low for compatibility)
   ISTART =      0    job   : 0-new  1-cont  2-samecut
   ICHARG =      2    charge: 1-file 2-atom 10-const
   ISPIN  =      1    spin polarized calculation?
   LNONCOLLINEAR =      F non collinear calculations
   LSORBIT =      F    spin-orbit coupling
   INIWAV =      1    electr: 0-lowe 1-rand  2-diag
   LASPH  =      F    aspherical Exc in radial PAW
   METAGGA=      F    non-selfconsistent MetaGGA calc.

 Electronic Relaxation 1
   ENCUT  =  600.0 eV  44.10 Ry    6.64 a.u.  27.50 19.10 55.25*2*pi/ulx,y,z
   ENINI  =  600.0     initial cutoff
   ENAUG  =  605.4 eV  augmentation charge cutoff
   NELM   =     60;   NELMIN=  2; NELMDL= -5     # of ELM steps 
   EDIFF  = 0.1E-03   stopping-criterion for ELM
   LREAL  =      T    real-space projection
   NLSPLINE    = F    spline interpolate recip. space projectors
   LCOMPAT=      F    compatible to vasp.4.4
   GGA_COMPAT  = T    GGA compatible to vasp.4.4-vasp.4.6
   LMAXPAW     = -100 max onsite density
   LMAXMIX     =    2 max onsite mixed and CHGCAR
   VOSKOWN=      0    Vosko Wilk Nusair interpolation
   ROPT   =   -0.00050  -0.00050  -0.00050  -0.00050
   ROPT   =   -0.00050  -0.00050
 Ionic relaxation
   EDIFFG = -.1E-01   stopping-criterion for IOM
   NSW    =    200    number of steps for IOM
   NBLOCK =      1;   KBLOCK =    200    inner block; outer block 
   IBRION =      2    ionic relax: 0-MD 1-quasi-New 2-CG
   NFREE  =      1    steps in history (QN), initial steepest desc. (CG)
   ISIF   =      2    stress and relaxation
   IWAVPR =     11    prediction:  0-non 1-charg 2-wave 3-comb
   ISYM   =      2    0-nonsym 1-usesym 2-fastsym
   LCORR  =      T    Harris-Foulkes like correction to forces

   POTIM  = 0.1000    time-step for ionic-motion
   TEIN   =    0.0    initial temperature
   TEBEG  =    0.0;   TEEND  =   0.0 temperature during run
   SMASS  =  -3.00    Nose mass-parameter (am)
   estimated Nose-frequenzy (Omega)   =  0.10E-29 period in steps =****** mass=  -0.433E-26a.u.
   SCALEE = 1.0000    scale energy and forces
   NPACO  =    256;   APACO  = 16.0  distance and # of slots for P.C.
   PSTRESS=    0.0 pullay stress

  Mass of Ions in am
   POMASS =  26.98 92.91180.95 47.88 91.22 16.00
  Ionic Valenz
   ZVAL   =   3.00 13.00  5.00  4.00  4.00  6.00
  Atomic Wigner-Seitz radii
   RWIGS  =  -1.00 -1.00 -1.00 -1.00 -1.00 -1.00
  virtual crystal weights 
   VCA    =   1.00  1.00  1.00  1.00  1.00  1.00
   NELECT =     356.0000    total number of electrons
   NUPDOWN=      -1.0000    fix difference up-down

 DOS related values:
   EMIN   =  10.00;   EMAX   =-10.00  energy-range for DOS
   EFERMI =   0.00
   ISMEAR =     2;   SIGMA  =   0.10  broadening in eV -4-tet -1-fermi 0-gaus

 Electronic relaxation 2 (details)
   IALGO  =     68    algorithm
   LDIAG  =      T    sub-space diagonalisation (order eigenvalues)
   LSUBROT=      F    optimize rotation matrix (better conditioning)
   TURBO    =      0    0=normal 1=particle mesh
   IRESTART =      0    0=no restart 2=restart with 2 vectors
   NREBOOT  =      0    no. of reboots
   NMIN     =      0    reboot dimension
   EREF     =   0.00    reference energy to select bands
   IMIX   =      4    mixing-type and parameters
     AMIX     =   0.40;   BMIX     =  1.00
     AMIX_MAG =   1.60;   BMIX_MAG =  1.00
     AMIN     =   0.10
     WC   =   100.;   INIMIX=   1;  MIXPRE=   1;  MAXMIX= -45

 Intra band minimization:
   WEIMIN = 0.0010     energy-eigenvalue tresh-hold
   EBREAK =  0.12E-06  absolut break condition
   DEPER  =   0.30     relativ break condition  

   TIME   =   0.40     timestep for ELM

  volume/ion in A,a.u.               =      55.21       372.55
  Fermi-wavevector in a.u.,A,eV,Ry     =   0.754017  1.424886  7.735485  0.568542
  Thomas-Fermi vector in A             =   1.851589
 
 Write flags
   LWAVE  =      F    write WAVECAR
   LCHARG =      F    write CHGCAR
   LVTOT  =      F    write LOCPOT, total local potential
   LVHAR  =      F    write LOCPOT, Hartree potential only
   LELF   =      F    write electronic localiz. function (ELF)
   LORBIT =      0    0 simple, 1 ext, 2 COOP (PROOUT)


 Dipole corrections
   LMONO  =      F    monopole corrections only (constant potential shift)
   LDIPOL =      F    correct potential (dipole corrections)
   IDIPOL =      0    1-x, 2-y, 3-z, 4-all directions 
   EPSILON=  1.0000000 bulk dielectric constant

 Exchange correlation treatment:
   GGA     =    --    GGA type
   LEXCH   =     8    internal setting for exchange type
   VOSKOWN=      0    Vosko Wilk Nusair interpolation
   LHFCALC =     F    Hartree Fock is set to
   LHFONE  =     F    Hartree Fock one center treatment
   AEXX    =    0.0000 exact exchange contribution

 Linear response parameters
   LEPSILON=     F    determine dielectric tensor
   LRPA    =     F    only Hartree local field effects (RPA)
   LNABLA  =     F    use nabla operator in PAW spheres
   LVEL    =     F    velocity operator in full k-point grid
   LINTERFAST=   F  fast interpolation
   KINTER  =     0    interpolate to denser k-point grid
   CSHIFT  =0.1000    complex shift for real part using Kramers Kronig
   OMEGAMAX=  -1.0    maximum frequency
   DEG_THRESHOLD= 0.2000000E-02 threshold for treating states as degnerate
   RTIME   =    0.100 relaxation time in fs

 Orbital magnetization related:
   ORBITALMAG=     F  switch on orbital magnetization
   LCHIMAG   =     F  perturbation theory with respect to B field
   DQ        =  0.001000  dq finite difference perturbation B field



--------------------------------------------------------------------------------------------------------


 conjugate gradient relaxation of ions
   using selective dynamics as specified on POSCAR
 charge density and potential will be updated during run
 non-spin polarized calculation
 RMM-DIIS sequential band-by-band and
  variant of blocked Davidson during initial phase
 perform sub-space diagonalisation
    before iterative eigenvector-optimisation
 modified Broyden-mixing scheme, WC =      100.0
 initial mixing is a Kerker type mixing with AMIX =  0.4000 and BMIX =      1.0000
 Hartree-type preconditioning will be used
 using additional bands           38
 real space projection scheme for non local part
 use partial core corrections
 calculate Harris-corrections to forces 
   (improved forces if not selfconsistent)
 use gradient corrections 
 use of overlap-Matrix (Vanderbilt PP)
 Methfessel and Paxton  Order N= 2 SIGMA  =   0.10


--------------------------------------------------------------------------------------------------------


  energy-cutoff  :      600.00
  volume of cell :     3643.60
      direct lattice vectors                 reciprocal lattice vectors
    13.771350861  0.000000000  0.000000000     0.072614518  0.000000000  0.000000000
     0.000000000  9.564481735  0.000000000     0.000000000  0.104553496  0.000000000
     0.000000000  0.000000000 27.662570434     0.000000000  0.000000000  0.036149931

  length of vectors
    13.771350861  9.564481735 27.662570434     0.072614518  0.104553496  0.036149931


 
 k-points in units of 2pi/SCALE and weight: k-points                                
   0.00000000  0.00000000  0.00000000       0.111
   0.02420484  0.00000000  0.00000000       0.222
   0.00000000  0.03485117  0.00000000       0.222
   0.02420484  0.03485117  0.00000000       0.222
  -0.02420484  0.03485117  0.00000000       0.222
 
 k-points in reciprocal lattice and weights: k-points                                
   0.00000000  0.00000000  0.00000000       0.111
   0.33333333  0.00000000  0.00000000       0.222
   0.00000000  0.33333333  0.00000000       0.222
   0.33333333  0.33333333  0.00000000       0.222
  -0.33333333  0.33333333  0.00000000       0.222
 
 position of ions in fractional coordinates (direct lattice) 
   0.62276447  0.86746430  0.37590333
   0.62187801  0.39081264  0.54782314
   0.61678273  0.63134161  0.62462746
   0.61839700  0.08363760  0.44965952
   0.97959530  0.63938758  0.55331736
   0.97963780  0.12056648  0.37767599
   0.72857308  0.34338307  0.45816820
   0.72321089  0.88772527  0.62166359
   0.51739597  0.60805875  0.36719826
   0.51710705  0.12839770  0.53926639
   0.61811078  0.34297293  0.36889183
   0.61926139  0.87003371  0.53749075
   0.74231148  0.84345710  0.46199300
   0.74531893  0.39474191  0.62922185
   0.39405298  0.84738672  0.36896032
   0.39659795  0.36249452  0.54038496
   0.61928761  0.60162497  0.45752798
   0.62351453  0.15080733  0.62284112
   0.27944195  0.83362269  0.45088327
   0.29545399  0.34112860  0.62181286
   0.27749392  0.60145303  0.53606621
   0.28324246  0.07725573  0.36149931
   0.73613632  0.63163762  0.53952285
   0.74002355  0.11549973  0.36646499
   0.49591756  0.83582580  0.45790018
   0.49640620  0.37944383  0.62833028
   0.83831804  0.64788589  0.62466929
   0.84724605  0.11017048  0.45460239
   0.85243583  0.34907103  0.37639265
   0.84928551  0.86490604  0.54966801
   0.52175105  0.33942658  0.46105252
   0.52560698  0.89263728  0.62290564
   0.49751023  0.62129020  0.53922114
   0.49943882  0.10200214  0.36464270
   0.40016663  0.58028412  0.45130253
   0.41494420  0.12130222  0.62742626
   0.25505811  0.36595738  0.46399110
   0.24393471  0.91483707  0.62638387
   0.25182599  0.61397660  0.37627308
   0.25054035  0.12868292  0.54967451
   0.86539888  0.85904646  0.37036829
   0.86519199  0.38257330  0.54346610
   0.38059813  0.35186696  0.37331264
   0.37860963  0.86864903  0.54841255
   0.38272060  0.64153930  0.62507385
   0.38408008  0.10357511  0.45579618
   0.11657381  0.61110574  0.46457054
   0.11486534  0.16656235  0.63313522
   0.99629861  0.59295863  0.36811234
   0.99233164  0.12001207  0.54561839
   0.11869311  0.87196302  0.37467704
   0.12396972  0.39509585  0.55426083
   0.99977952  0.33051389  0.45306987
   0.98585247  0.89164595  0.62346902
   0.14482272  0.33176249  0.36788561
   0.13324844  0.85165201  0.54258271
   0.97888047  0.87608504  0.46520830
   0.96331741  0.42461478  0.63982290
   0.12635740  0.65834821  0.62921197
   0.14721048  0.09173214  0.45072276
   0.73135245  0.60578495  0.36679988
   0.73449040  0.12855702  0.53775002
   0.86923259  0.59196168  0.45825814
   0.84983017  0.14253963  0.63410340
   0.24063585  0.53413685  0.60591057
   0.39160000  0.45506000  0.67263903
 
 position of ions in cartesian coordinates  (Angst):
   8.57630799  8.29684649 10.39845223
   8.56410033  3.73792035 15.15419628
   8.49393136  6.03845526 17.27880116
   8.51616202  0.79995025 12.43873821
  13.49035062  6.11541087 15.30618056
  13.49093588  1.15315590 10.44748880
  10.03343557  3.28428114 12.67411000
   9.95959089  8.49063216 17.19681277
   7.12524148  5.81576681 10.15764776
   7.12126255  1.22805742 14.91749438
   8.51222037  3.28035836 10.20449636
   8.52806591  8.32142149 14.86837567
  10.22263181  8.06723005 12.77991378
  10.26404850  3.77550180 17.40589361
   5.42664188  8.10481479 10.20639088
   5.46168953  3.46707221 14.94843713
   8.52842696  5.75423100 12.65640004
   8.58663742  1.44239397 17.22938626
   3.84829318  7.97316903 12.47259035
   4.06880054  3.26271829 17.20094212
   3.82146609  5.75258652 14.82896919
   3.90063135  0.73891098 10.00000000
  10.13759148  6.04128650 14.92458876
  10.19112400  1.10469510 10.13736353
   6.82945470  7.99424061 12.66669595
   6.83618390  3.62918359 17.38123065
  11.54477192  6.19669276 17.27995835
  11.66772263  1.05372358 12.57547056
  11.73919286  3.33868345 10.41198829
  11.69580879  8.27237803 15.20523013
   7.18521672  3.24643930 12.75389771
   7.23831819  8.53761300 17.23117124
   6.85138790  5.94231873 14.91624264
   6.87794726  0.97559764 10.08695433
   5.51083508  5.55011685 12.48418803
   5.71434222  1.16019282 17.35622311
   3.51249472  3.50019267 12.83518635
   3.35931047  8.74994248 17.32738786
   3.46798404  5.87236796 10.40868071
   3.45027908  1.23078540 15.20540972
  11.91771166  8.21633417 10.24533883
  11.91486245  3.65911531 15.03366932
   5.24135036  3.36542512 10.32678719
   5.21396611  8.30817780 15.17050089
   5.27057962  6.13599091 17.29114936
   5.28930157  0.99064225 12.60849381
   1.60537885  5.84490969 12.85121538
   1.58185085  1.59308256 17.51414748
  13.72037774  5.67134198 10.18293350
  13.66574721  1.14785324 15.09320710
   1.63456451  8.33987442 10.36453009
   1.70723058  3.77888702 15.33227934
  13.76831459  3.16119411 12.53307716
  13.57652031  8.52813139 17.24675581
   1.99440444  3.17313630 10.17666150
   1.83501098  8.14561007 15.00923250
  13.48050634  8.37929939 12.86885734
  13.26618203  4.06122034 17.69914594
   1.74011210  6.29675945 17.40562047
   2.02728715  0.87737042 12.46815015
  10.07171117  5.79401911 10.14662739
  10.11492503  1.22958129 14.87554775
  11.97050705  5.66180669 12.67659812
  11.70330940  1.36331769 17.54092993
   3.31388073  5.10874215 16.76104394
   5.39286100  4.35241306 18.60692454
 


--------------------------------------------------------------------------------------------------------


 k-point  1 :   0.0000 0.0000 0.0000  plane waves:  121663
 k-point  2 :   0.3333 0.0000 0.0000  plane waves:  121577
 k-point  3 :   0.0000 0.3333 0.0000  plane waves:  121622
 k-point  4 :   0.3333 0.3333 0.0000  plane waves:  121647
 k-point  5 :  -0.3333 0.3333 0.0000  plane waves:  121647

 maximum and minimum number of plane-waves per node :      5107     5041

 maximum number of plane-waves:    121663
 maximum index in each direction: 
   IXMAX=   27   IYMAX=   19   IZMAX=   55
   IXMIN=  -27   IYMIN=  -19   IZMIN=  -55

 WARNING: aliasing errors must be expected set NGX to 110 to avoid them
 WARNING: aliasing errors must be expected set NGY to  78 to avoid them
 WARNING: aliasing errors must be expected set NGZ to 222 to avoid them
 aliasing errors are usually negligible using standard VASP settings
 and one can safely disregard these warnings

 real space projection operators:
  total allocation   :      29481.46 KBytes
  max/ min on nodes  :       1424.91       1007.52


 parallel 3D FFT for wavefunctions:
    minimum data exchange during FFTs selected (reduces bandwidth)
 parallel 3D FFT for charge:
    minimum data exchange during FFTs selected (reduces bandwidth)


 total amount of memory used by VASP on root node    71837. kBytes
========================================================================

   base      :      30000. kBytes
   nonlr-proj:       7019. kBytes
   fftplans  :       3890. kBytes
   grid      :       8747. kBytes
   one-center:         46. kBytes
   wavefun   :      22135. kBytes
 
     INWAV:  cpu time    0.0000: real time    0.0000
 Broyden mixing: mesh for mixing (old mesh)
   NGX = 55   NGY = 39   NGZ =111
  (NGX  =168   NGY  =120   NGZ  =336)
  gives a total of 238095 points

 initial charge density was supplied:
 charge density of overlapping atoms calculated
 number of electron     356.0000000 magnetization 
 keeping initial charge density in first step


--------------------------------------------------------------------------------------------------------


 Maximum index for non-local projection operator          396
 Maximum index for augmentation-charges         1033 (set IRDMAX)


--------------------------------------------------------------------------------------------------------


 First call to EWALD:  gamma=   0.115
 Maximum number of real-space cells 3x 4x 2
 Maximum number of reciprocal cells 3x 2x 5

 FEWALD executed in parallel
    FEWALD:  cpu time    0.0020: real time    0.0020


----------------------------------------- Iteration    1(   1)  ---------------------------------------


    POTLOK:  cpu time    0.0643: real time    0.0692
    SETDIJ:  cpu time    0.0121: real time    0.0137
     EDDAV:  cpu time    4.9427: real time    4.9777
       DOS:  cpu time    0.0008: real time    0.0008
    --------------------------------------------
      LOOP:  cpu time    5.0237: real time    5.0706

 eigenvalue-minimisations  :  2272
 total energy-change (2. order) : 0.3996575E+04  (-0.1291676E+05)
 number of electron     356.0000000 magnetization 
 augmentation part      356.0000000 magnetization 

 Free energy of the ion-electron system (eV)
  ---------------------------------------------------
  alpha Z        PSCENC =       529.78975023
  Ewald energy   TEWEN  =     73598.25843659
  -Hartree energ DENC   =    -92425.49440921
  -exchange      EXHF   =         0.00000000
  -V(xc)+E(xc)   XCENC  =     -3032.74182674
  PAW double counting   =     20132.38007695   -16044.74363903
  entropy T*S    EENTRO =        -0.01090899
  eigenvalues    EBANDS =       248.41091794
  atomic energy  EATOM  =     20990.72652202
  Solvation  Ediel_sol  =         0.00000000
  ---------------------------------------------------
  free energy    TOTEN  =      3996.57491975 eV

  energy without entropy =     3996.58582874  energy(sigma->0) =     3996.57764700


--------------------------------------------------------------------------------------------------------




----------------------------------------- Iteration    1(   2)  ---------------------------------------


     EDDAV:  cpu time    5.0840: real time    5.0850
       DOS:  cpu time    0.0008: real time    0.0008
    --------------------------------------------
      LOOP:  cpu time    5.0861: real time    5.0931

 eigenvalue-minimisations  :  2392
 total energy-change (2. order) :-0.3692872E+04  (-0.3583308E+04)
 number of electron     356.0000000 magnetization 
 augmentation part      356.0000000 magnetization 

 Free energy of the ion-electron system (eV)
  ---------------------------------------------------
  alpha Z        PSCENC =       529.78975023
  Ewald energy   TEWEN  =     73598.25843659
  -Hartree energ DENC   =    -92425.49440921
  -exchange      EXHF   =         0.00000000
  -V(xc)+E(xc)   XCENC  =     -3032.74182674
  PAW double counting   =     20132.38007695   -16044.74363903
  entropy T*S    EENTRO =         0.01236708
  eigenvalues    EBANDS =     -3444.48466151
  atomic energy  EATOM  =     20990.72652202
  Solvation  Ediel_sol  =         0.00000000
  ---------------------------------------------------
  free energy    TOTEN  =       303.70261637 eV

  energy without entropy =      303.69024929  energy(sigma->0) =      303.69952460


--------------------------------------------------------------------------------------------------------




----------------------------------------- Iteration    1(   3)  ---------------------------------------


     EDDAV:  cpu time    7.6134: real time    7.6145
       DOS:  cpu time    0.0008: real time    0.0008
    --------------------------------------------
      LOOP:  cpu time    7.6153: real time    7.6224

 eigenvalue-minimisations  :  3952
 total energy-change (2. order) :-0.7850558E+03  (-0.7611942E+03)
 number of electron     356.0000000 magnetization 
 augmentation part      356.0000000 magnetization 

 Free energy of the ion-electron system (eV)
  ---------------------------------------------------
  alpha Z        PSCENC =       529.78975023
  Ewald energy   TEWEN  =     73598.25843659
  -Hartree energ DENC   =    -92425.49440921
  -exchange      EXHF   =         0.00000000
  -V(xc)+E(xc)   XCENC  =     -3032.74182674
  PAW double counting   =     20132.38007695   -16044.74363903
  entropy T*S    EENTRO =        -0.00763288
  eigenvalues    EBANDS =     -4229.52041681
  atomic energy  EATOM  =     20990.72652202
  Solvation  Ediel_sol  =         0.00000000
  ---------------------------------------------------
  free energy    TOTEN  =      -481.35313888 eV

  energy without entropy =     -481.34550601  energy(sigma->0) =     -481.35123066


--------------------------------------------------------------------------------------------------------




----------------------------------------- Iteration    1(   4)  ---------------------------------------


     EDDAV:  cpu time    6.9983: real time    6.9983
       DOS:  cpu time    0.0008: real time    0.0008
    --------------------------------------------
      LOOP:  cpu time    7.0003: real time    7.0053

 eigenvalue-minimisations  :  3576
 total energy-change (2. order) :-0.1015256E+03  (-0.9728510E+02)
 number of electron     356.0000000 magnetization 
 augmentation part      356.0000000 magnetization 

 Free energy of the ion-electron system (eV)
  ---------------------------------------------------
  alpha Z        PSCENC =       529.78975023
  Ewald energy   TEWEN  =     73598.25843659
  -Hartree energ DENC   =    -92425.49440921
  -exchange      EXHF   =         0.00000000
  -V(xc)+E(xc)   XCENC  =     -3032.74182674
  PAW double counting   =     20132.38007695   -16044.74363903
  entropy T*S    EENTRO =         0.00504072
  eigenvalues    EBANDS =     -4331.05867772
  atomic energy  EATOM  =     20990.72652202
  Solvation  Ediel_sol  =         0.00000000
  ---------------------------------------------------
  free energy    TOTEN  =      -582.87872619 eV

  energy without entropy =     -582.88376691  energy(sigma->0) =     -582.87998637


--------------------------------------------------------------------------------------------------------




----------------------------------------- Iteration    1(   5)  ---------------------------------------


     EDDAV:  cpu time    7.7535: real time    7.7535
       DOS:  cpu time    0.0008: real time    0.0008
    CHARGE:  cpu time    0.1548: real time    0.1558
    MIXING:  cpu time    0.0060: real time    0.0064
    --------------------------------------------
      LOOP:  cpu time    7.9162: real time    7.9242

 eigenvalue-minimisations  :  4040
 total energy-change (2. order) :-0.1403539E+02  (-0.1361983E+02)
 number of electron     356.0000015 magnetization 
 augmentation part       43.3035652 magnetization 

 Broyden mixing:
  rms(total) = 0.61364E+01    rms(broyden)= 0.61364E+01
  rms(prec ) = 0.67413E+01
  weight for this iteration     100.00

 Free energy of the ion-electron system (eV)
  ---------------------------------------------------
  alpha Z        PSCENC =       529.78975023
  Ewald energy   TEWEN  =     73598.25843659
  -Hartree energ DENC   =    -92425.49440921
  -exchange      EXHF   =         0.00000000
  -V(xc)+E(xc)   XCENC  =     -3032.74182674
  PAW double counting   =     20132.38007695   -16044.74363903
  entropy T*S    EENTRO =         0.00986296
  eigenvalues    EBANDS =     -4345.09888913
  atomic energy  EATOM  =     20990.72652202
  Solvation  Ediel_sol  =         0.00000000
  ---------------------------------------------------
  free energy    TOTEN  =      -596.91411537 eV

  energy without entropy =     -596.92397833  energy(sigma->0) =     -596.91658111


--------------------------------------------------------------------------------------------------------




----------------------------------------- Iteration    1(   6)  ---------------------------------------


    POTLOK:  cpu time    0.0500: real time    0.0500
    SETDIJ:  cpu time    0.0063: real time    0.0063
    EDDIAG:  cpu time    0.7648: real time    0.7660
  RMM-DIIS:  cpu time    4.0098: real time    4.0109
    ORTHCH:  cpu time    0.2195: real time    0.2195
       DOS:  cpu time    0.0008: real time    0.0008
    CHARGE:  cpu time    0.1548: real time    0.1548
    MIXING:  cpu time    0.0037: real time    0.0062
    --------------------------------------------
      LOOP:  cpu time    5.2113: real time    5.2222

 eigenvalue-minimisations  :  3562
 total energy-change (2. order) :-0.5299392E+02  (-0.1426936E+03)
 number of electron     356.0000011 magnetization 
 augmentation part       58.2012581 magnetization 

 Broyden mixing:
  rms(total) = 0.43232E+01    rms(broyden)= 0.43231E+01
  rms(prec ) = 0.56159E+01
  weight for this iteration     100.00

 eigenvalues of (default mixing * dielectric matrix)
  average eigenvalue GAMMA=   0.7169
  0.7169

 Free energy of the ion-electron system (eV)
  ---------------------------------------------------
  alpha Z        PSCENC =       529.78975023
  Ewald energy   TEWEN  =     73598.25843659
  -Hartree energ DENC   =    -93126.19075135
  -exchange      EXHF   =         0.00000000
  -V(xc)+E(xc)   XCENC  =     -3020.76406490
  PAW double counting   =     23745.36779003   -19659.42532448
  entropy T*S    EENTRO =         0.00457215
  eigenvalues    EBANDS =     -3707.67496927
  atomic energy  EATOM  =     20990.72652202
  Solvation  Ediel_sol  =         0.00000000
  ---------------------------------------------------
  free energy    TOTEN  =      -649.90803898 eV

  energy without entropy =     -649.91261113  energy(sigma->0) =     -649.90918202


--------------------------------------------------------------------------------------------------------




----------------------------------------- Iteration    1(   7)  ---------------------------------------


    POTLOK:  cpu time    0.0496: real time    0.0496
    SETDIJ:  cpu time    0.0063: real time    0.0063
    EDDIAG:  cpu time    0.7678: real time    0.7678
  RMM-DIIS:  cpu time    2.7556: real time    2.7556
    ORTHCH:  cpu time    0.2196: real time    0.2196
       DOS:  cpu time    0.0009: real time    0.0009
    CHARGE:  cpu time    0.1546: real time    0.1546
    MIXING:  cpu time    0.0019: real time    0.0024
    --------------------------------------------
      LOOP:  cpu time    3.9577: real time    3.9644

 eigenvalue-minimisations  :  2432
 total energy-change (2. order) : 0.9944592E+02  (-0.3203372E+02)
 number of electron     356.0000016 magnetization 
 augmentation part       50.4542237 magnetization 

 Broyden mixing:
  rms(total) = 0.30499E+01    rms(broyden)= 0.30499E+01
  rms(prec ) = 0.41797E+01
  weight for this iteration     100.00

 eigenvalues of (default mixing * dielectric matrix)
  average eigenvalue GAMMA=   0.7422
  1.1337  0.3508

 Free energy of the ion-electron system (eV)
  ---------------------------------------------------
  alpha Z        PSCENC =       529.78975023
  Ewald energy   TEWEN  =     73598.25843659
  -Hartree energ DENC   =    -92691.47620374
  -exchange      EXHF   =         0.00000000
  -V(xc)+E(xc)   XCENC  =     -3021.89117875
  PAW double counting   =     24081.28614883   -20007.45541772
  entropy T*S    EENTRO =        -0.00765299
  eigenvalues    EBANDS =     -4029.69252196
  atomic energy  EATOM  =     20990.72652202
  Solvation  Ediel_sol  =         0.00000000
  ---------------------------------------------------
  free energy    TOTEN  =      -550.46211749 eV

  energy without entropy =     -550.45446450  energy(sigma->0) =     -550.46020424


--------------------------------------------------------------------------------------------------------




----------------------------------------- Iteration    1(   8)  ---------------------------------------


    POTLOK:  cpu time    0.0495: real time    0.0495
    SETDIJ:  cpu time    0.0061: real time    0.0061
    EDDIAG:  cpu time    0.7684: real time    0.7684
  RMM-DIIS:  cpu time    3.7598: real time    3.7598
    ORTHCH:  cpu time    0.2191: real time    0.2191
       DOS:  cpu time    0.0007: real time    0.0007
    CHARGE:  cpu time    0.1571: real time    0.1571
    MIXING:  cpu time    0.0020: real time    0.0027
    --------------------------------------------
      LOOP:  cpu time    4.9642: real time    4.9712

 eigenvalue-minimisations  :  3280
 total energy-change (2. order) :-0.3199795E+02  (-0.1893543E+02)
 number of electron     356.0000011 magnetization 
 augmentation part       49.6730993 magnetization 

 Broyden mixing:
  rms(total) = 0.30550E+01    rms(broyden)= 0.30550E+01
  rms(prec ) = 0.58988E+01
  weight for this iteration     100.00

 eigenvalues of (default mixing * dielectric matrix)
  average eigenvalue GAMMA=   0.6518
  1.3155  0.3751  0.2648

 Free energy of the ion-electron system (eV)
  ---------------------------------------------------
  alpha Z        PSCENC =       529.78975023
  Ewald energy   TEWEN  =     73598.25843659
  -Hartree energ DENC   =    -92768.83509849
  -exchange      EXHF   =         0.00000000
  -V(xc)+E(xc)   XCENC  =     -3020.28303268
  PAW double counting   =     24934.65252337   -20862.08573089
  entropy T*S    EENTRO =        -0.00001681
  eigenvalues    EBANDS =     -3984.68342471
  atomic energy  EATOM  =     20990.72652202
  Solvation  Ediel_sol  =         0.00000000
  ---------------------------------------------------
  free energy    TOTEN  =      -582.46007137 eV

  energy without entropy =     -582.46005455  energy(sigma->0) =     -582.46006716


--------------------------------------------------------------------------------------------------------




----------------------------------------- Iteration    1(   9)  ---------------------------------------


    POTLOK:  cpu time    0.0495: real time    0.0495
    SETDIJ:  cpu time    0.0062: real time    0.0062
    EDDIAG:  cpu time    0.7742: real time    0.7742
  RMM-DIIS:  cpu time    4.0057: real time    4.0058
    ORTHCH:  cpu time    0.2197: real time    0.2197
       DOS:  cpu time    0.0009: real time    0.0009
    CHARGE:  cpu time    0.1528: real time    0.1528
    MIXING:  cpu time    0.0020: real time    0.0020
    --------------------------------------------
      LOOP:  cpu time    5.2125: real time    5.2188

 eigenvalue-minimisations  :  3518
 total energy-change (2. order) : 0.4630186E+02  (-0.7176380E+01)
 number of electron     356.0000011 magnetization 
 augmentation part       48.0897495 magnetization 

 Broyden mixing:
  rms(total) = 0.19125E+01    rms(broyden)= 0.19125E+01
  rms(prec ) = 0.25238E+01
  weight for this iteration     100.00

 eigenvalues of (default mixing * dielectric matrix)
  average eigenvalue GAMMA=   0.6232
  1.5422  0.3947  0.3947  0.1613

 Free energy of the ion-electron system (eV)
  ---------------------------------------------------
  alpha Z        PSCENC =       529.78975023
  Ewald energy   TEWEN  =     73598.25843659
  -Hartree energ DENC   =    -92825.21168383
  -exchange      EXHF   =         0.00000000
  -V(xc)+E(xc)   XCENC  =     -3018.58399672
  PAW double counting   =     25392.57343853   -21317.94200605
  entropy T*S    EENTRO =        -0.00464312
  eigenvalues    EBANDS =     -3885.76402948
  atomic energy  EATOM  =     20990.72652202
  Solvation  Ediel_sol  =         0.00000000
  ---------------------------------------------------
  free energy    TOTEN  =      -536.15821182 eV

  energy without entropy =     -536.15356870  energy(sigma->0) =     -536.15705104


--------------------------------------------------------------------------------------------------------




----------------------------------------- Iteration    1(  10)  ---------------------------------------


    POTLOK:  cpu time    0.0497: real time    0.0497
    SETDIJ:  cpu time    0.0061: real time    0.0061
    EDDIAG:  cpu time    0.7850: real time    0.7850
  RMM-DIIS:  cpu time    3.5611: real time    3.5612
    ORTHCH:  cpu time    0.2191: real time    0.2191
       DOS:  cpu time    0.0009: real time    0.0009
    CHARGE:  cpu time    0.1503: real time    0.1503
    MIXING:  cpu time    0.0021: real time    0.0021
    --------------------------------------------
      LOOP:  cpu time    4.7757: real time    4.7835

 eigenvalue-minimisations  :  3089
 total energy-change (2. order) : 0.1102810E+02  (-0.2957027E+01)
 number of electron     356.0000013 magnetization 
 augmentation part       49.6973415 magnetization 

 Broyden mixing:
  rms(total) = 0.99174E+00    rms(broyden)= 0.99174E+00
  rms(prec ) = 0.11517E+01
  weight for this iteration     100.00

 eigenvalues of (default mixing * dielectric matrix)
  average eigenvalue GAMMA=   0.6298
  1.6024  0.5366  0.5366  0.3137  0.1598

 Free energy of the ion-electron system (eV)
  ---------------------------------------------------
  alpha Z        PSCENC =       529.78975023
  Ewald energy   TEWEN  =     73598.25843659
  -Hartree energ DENC   =    -92866.53800397
  -exchange      EXHF   =         0.00000000
  -V(xc)+E(xc)   XCENC  =     -3015.24721803
  PAW double counting   =     25978.41747189   -21898.72027985
  entropy T*S    EENTRO =         0.01170797
  eigenvalues    EBANDS =     -3841.82849924
  atomic energy  EATOM  =     20990.72652202
  Solvation  Ediel_sol  =         0.00000000
  ---------------------------------------------------
  free energy    TOTEN  =      -525.13011238 eV

  energy without entropy =     -525.14182035  energy(sigma->0) =     -525.13303937


--------------------------------------------------------------------------------------------------------




----------------------------------------- Iteration    1(  11)  ---------------------------------------


    POTLOK:  cpu time    0.0498: real time    0.0498
    SETDIJ:  cpu time    0.0061: real time    0.0061
    EDDIAG:  cpu time    0.7784: real time    0.7784
  RMM-DIIS:  cpu time    3.7568: real time    3.7568
    ORTHCH:  cpu time    0.2189: real time    0.2189
       DOS:  cpu time    0.0009: real time    0.0009
    CHARGE:  cpu time    0.1504: real time    0.1504
    MIXING:  cpu time    0.0021: real time    0.0021
    --------------------------------------------
      LOOP:  cpu time    4.9650: real time    4.9720

 eigenvalue-minimisations  :  3329
 total energy-change (2. order) : 0.1896113E+00  (-0.1896223E+01)
 number of electron     356.0000013 magnetization 
 augmentation part       50.6519378 magnetization 

 Broyden mixing:
  rms(total) = 0.78785E+00    rms(broyden)= 0.78785E+00
  rms(prec ) = 0.94562E+00
  weight for this iteration     100.00

 eigenvalues of (default mixing * dielectric matrix)
  average eigenvalue GAMMA=   0.6441
  1.6554  0.7162  0.7162  0.3104  0.3104  0.1558

 Free energy of the ion-electron system (eV)
  ---------------------------------------------------
  alpha Z        PSCENC =       529.78975023
  Ewald energy   TEWEN  =     73598.25843659
  -Hartree energ DENC   =    -92891.14616389
  -exchange      EXHF   =         0.00000000
  -V(xc)+E(xc)   XCENC  =     -3013.54421008
  PAW double counting   =     26312.34016201   -22229.03843304
  entropy T*S    EENTRO =        -0.00204759
  eigenvalues    EBANDS =     -3822.32451737
  atomic energy  EATOM  =     20990.72652202
  Solvation  Ediel_sol  =         0.00000000
  ---------------------------------------------------
  free energy    TOTEN  =      -524.94050111 eV

  energy without entropy =     -524.93845352  energy(sigma->0) =     -524.93998921


--------------------------------------------------------------------------------------------------------




----------------------------------------- Iteration    1(  12)  ---------------------------------------


    POTLOK:  cpu time    0.0498: real time    0.0498
    SETDIJ:  cpu time    0.0061: real time    0.0061
    EDDIAG:  cpu time    0.7760: real time    0.7760
  RMM-DIIS:  cpu time    3.9887: real time    3.9888
[...]
 total augmentation occupancy for first ion, spin component:           1
  3.395  -0.775  -0.024   0.157  -0.019   0.003  -0.024   0.003
 -0.775   0.195   0.017  -0.100   0.009  -0.001   0.009  -0.001
 -0.024   0.017   1.214   0.017  -0.000  -0.072  -0.002  -0.000
  0.157  -0.100   0.017   0.995   0.011  -0.002  -0.055  -0.001
 -0.019   0.009  -0.000   0.011   1.221  -0.000  -0.001  -0.071
  0.003  -0.001  -0.072  -0.002  -0.000   0.004   0.000   0.000
 -0.024   0.009  -0.002  -0.055  -0.001   0.000   0.003   0.000
  0.003  -0.001  -0.000  -0.001  -0.071   0.000   0.000   0.004


------------------------ aborting loop because EDIFF is reached ----------------------------------------


    CHARGE:  cpu time    0.1564: real time    0.1564
    FORLOC:  cpu time    0.0195: real time    0.0195
    FORNL :  cpu time    0.8847: real time    0.8847
    STRESS:  cpu time    2.6732: real time    2.6732
    FORCOR:  cpu time    0.0730: real time    0.0730
    FORHAR:  cpu time    0.0322: real time    0.0322
    MIXING:  cpu time    0.0019: real time    0.0019
    OFIELD:  cpu time    0.0000: real time    0.0000

  FORCE on cell =-STRESS in cart. coord.  units (eV):
  Direction    XX          YY          ZZ          XY          YZ          ZX
  --------------------------------------------------------------------------------------
  Alpha Z   529.78975   529.78975   529.78975
  Ewald   79891.28882 85003.55928-91121.58292  -954.62947   121.44696   384.80064
  Hartree 84465.54707 89325.95841-80639.55571  -755.07458    90.78613   351.64306
  E(xc)   -1501.97773 -1505.27033 -1493.00823     0.69188     0.04562     0.36973
  Local  ************************168022.76607  1705.38695  -209.79930  -733.31075
  n-local   -66.02530   -65.31323   -97.56596     9.46667    -1.76048     2.83830
  augment   449.44592   450.22843   445.38659    -1.24596     0.34545    -0.06737
  Kinetic  4332.42500  4318.36365  4337.95537    -9.21699     4.68904    -7.73409
  Fock        0.00000     0.00000     0.00000     0.00000     0.00000     0.00000
  -------------------------------------------------------------------------------------
  Total     -32.54292   -25.54890   -15.81505    -4.62150     5.75342    -1.46047
  in kB     -14.30990   -11.23446    -6.95425    -2.03218     2.52992    -0.64220
  external pressure =      -10.83 kB  Pullay stress =        0.00 kB


 VOLUME and BASIS-vectors are now :
 -----------------------------------------------------------------------------
  energy-cutoff  :      600.00
  volume of cell :     3643.60
      direct lattice vectors                 reciprocal lattice vectors
    13.771350861  0.000000000  0.000000000     0.072614518  0.000000000  0.000000000
     0.000000000  9.564481735  0.000000000     0.000000000  0.104553496  0.000000000
     0.000000000  0.000000000 27.662570434     0.000000000  0.000000000  0.036149931

  length of vectors
    13.771350861  9.564481735 27.662570434     0.072614518  0.104553496  0.036149931


 FORCES acting on ions
    electron-ion (+dipol)            ewald-force                    non-local-force                 convergence-correction
 -----------------------------------------------------------------------------------------------
   -.473E+02 -.339E+02 0.381E+03   0.471E+02 0.337E+02 -.380E+03   0.109E+00 0.608E-01 -.792E+00   0.428E-03 0.423E-03 0.873E-02
   -.250E+02 -.341E+02 -.135E+03   0.249E+02 0.341E+02 0.135E+03   0.787E-01 0.296E-01 0.170E+00   -.616E-03 0.227E-03 0.212E-01
   0.231E+02 0.108E+02 -.369E+03   -.224E+02 -.104E+02 0.368E+03   -.669E+00 -.414E+00 0.111E+01   -.318E-02 0.114E-02 0.728E-02
   -.160E+00 0.611E+01 0.197E+03   0.669E-01 -.597E+01 -.196E+03   0.105E+00 -.319E+00 -.989E+00   0.661E-03 0.248E-03 0.184E-01
   -.529E+02 0.525E+01 -.113E+03   0.526E+02 -.474E+01 0.114E+03   0.256E+00 -.512E+00 -.120E+01   -.471E-02 0.625E-03 0.229E-01
   -.461E+02 0.469E+01 0.323E+03   0.454E+02 -.410E+01 -.320E+03   0.669E+00 -.101E+01 -.230E+01   -.541E-02 -.158E-03 0.398E-02
   -.384E+03 -.697E+01 0.446E+03   0.384E+03 0.771E+01 -.448E+03   0.868E-01 -.365E+00 0.926E+00   -.258E-01 0.260E-02 0.886E-01
   -.293E+03 0.260E+02 -.166E+04   0.293E+03 -.250E+02 0.166E+04   0.903E+00 -.982E+00 0.410E+01   -.245E-01 0.154E-01 0.443E-01
   0.986E+02 -.100E+02 0.163E+04   -.983E+02 0.893E+01 -.163E+04   -.569E+00 0.608E+00 -.431E+01   0.147E-01 0.398E-03 0.392E-01
   0.187E+03 0.243E+02 -.405E+03   -.187E+03 -.243E+02 0.406E+03   0.151E+00 -.268E-01 -.116E+01   0.130E-01 -.249E-02 0.114E+00
   -.572E+02 0.138E+03 0.170E+04   0.580E+02 -.137E+03 -.170E+04   -.509E+00 -.417E+00 -.275E+01   0.419E-02 -.242E-02 0.356E-01
   0.981E+02 0.127E+03 -.424E+03   -.973E+02 -.127E+03 0.424E+03   -.753E+00 0.209E+00 -.236E+00   -.588E-02 -.315E-02 0.105E+00
   -.422E+03 -.161E+01 0.723E+03   0.423E+03 0.395E+00 -.722E+03   -.815E+00 0.146E+01 -.164E+01   -.252E-01 -.457E-02 0.932E-01
   -.193E+03 -.321E+02 -.153E+04   0.194E+03 0.318E+02 0.152E+04   -.129E+01 0.299E+00 0.320E+01   -.151E-01 -.174E-01 0.358E-01
   0.297E+03 -.117E+03 0.154E+04   -.297E+03 0.118E+03 -.153E+04   0.263E+00 -.393E+00 -.420E+01   0.319E-01 -.138E-01 0.316E-01
   0.324E+03 -.746E+02 -.363E+03   -.324E+03 0.742E+02 0.364E+03   0.453E-01 0.447E+00 -.422E+00   0.424E-01 -.981E-02 0.113E+00
   -.141E+02 0.206E+01 0.178E+03   0.136E+02 -.194E+01 -.179E+03   0.442E+00 -.323E+00 0.979E-01   -.197E-03 -.486E-03 0.347E-01
   -.649E+01 -.244E+02 -.662E+03   0.585E+01 0.244E+02 0.660E+03   0.655E+00 -.231E-01 0.239E+01   -.637E-02 -.243E-02 0.169E-01
   0.173E+03 -.123E+02 0.166E+03   -.172E+03 0.119E+02 -.167E+03   -.135E+01 0.782E+00 0.588E+00   0.121E-01 0.477E-03 0.309E-01
   0.164E+03 0.111E+03 -.594E+03   -.163E+03 -.112E+03 0.591E+03   -.104E+01 0.111E+01 0.298E+01   0.988E-02 -.789E-02 0.221E-01
   0.110E+03 -.725E+02 -.508E+02   -.110E+03 0.726E+02 0.493E+02   -.843E+00 -.669E-01 0.148E+01   0.924E-02 0.322E-02 0.331E-01
   0.117E+03 -.550E+02 0.470E+03   -.116E+03 0.552E+02 -.467E+03   -.808E+00 -.264E+00 -.262E+01   0.536E-02 -.588E-03 0.387E-02
   -.106E+03 0.673E+02 -.148E+03   0.106E+03 -.669E+02 0.148E+03   0.192E+00 -.415E+00 0.580E+00   -.716E-02 0.133E-03 0.266E-01
   -.101E+03 0.597E+02 0.523E+03   0.100E+03 -.592E+02 -.520E+03   0.460E+00 -.468E+00 -.275E+01   -.489E-02 0.733E-03 0.695E-02
   0.803E+02 -.131E+02 0.159E+03   -.811E+02 0.127E+02 -.159E+03   0.717E+00 0.668E+00 -.323E+00   0.721E-02 -.997E-03 0.258E-01
   -.404E+02 -.572E+01 -.497E+03   0.400E+02 0.520E+01 0.495E+03   0.452E+00 0.530E+00 0.185E+01   0.244E-02 -.533E-02 0.107E-01
   -.127E+03 -.138E+01 -.444E+03   0.126E+03 0.158E+01 0.442E+03   0.237E+00 -.198E+00 0.216E+01   -.563E-02 0.852E-03 0.133E-01
   -.165E+03 0.644E+01 0.186E+03   0.165E+03 -.624E+01 -.187E+03   0.304E+00 -.286E+00 0.293E+00   -.100E-01 -.594E-04 0.234E-01
   -.150E+03 -.546E+01 0.479E+03   0.149E+03 0.541E+01 -.476E+03   0.654E+00 -.366E-01 -.257E+01   -.916E-02 -.399E-02 0.788E-02
   -.202E+03 -.365E+01 -.156E+03   0.201E+03 0.377E+01 0.156E+03   0.941E+00 -.125E+00 0.403E+00   -.880E-02 0.365E-03 0.296E-01
   0.775E+02 0.809E+00 0.176E+03   -.777E+02 -.455E+00 -.176E+03   0.107E-01 -.415E-01 0.312E-01   0.722E-02 0.107E-02 0.256E-01
   0.117E+03 0.364E+02 -.533E+03   -.116E+03 -.365E+02 0.531E+03   -.419E+00 0.115E+00 0.218E+01   -.403E-03 0.553E-02 0.147E-01
   0.533E+02 -.152E+02 -.165E+03   -.537E+02 0.154E+02 0.164E+03   0.346E+00 -.231E+00 0.607E+00   0.777E-02 0.134E-02 0.299E-01
   0.353E+02 -.620E+00 0.503E+03   -.360E+02 0.566E+00 -.501E+03   0.616E+00 0.191E-01 -.247E+01   0.948E-02 0.722E-03 0.821E-02
   0.126E+03 0.655E+01 0.163E+03   -.125E+03 -.682E+01 -.163E+03   -.743E+00 0.631E+00 -.417E+00   0.133E-01 0.133E-02 0.233E-01
   0.106E+03 0.602E+02 -.509E+03   -.106E+03 -.592E+02 0.507E+03   -.383E+00 -.983E+00 0.231E+01   0.651E-02 -.386E-02 0.170E-01
   0.130E+03 0.131E+02 0.186E+03   -.130E+03 -.126E+02 -.186E+03   -.833E-01 -.462E+00 -.368E+00   0.802E-02 -.111E-02 0.261E-01
   0.572E+02 -.311E+01 -.438E+03   -.575E+02 0.240E+01 0.436E+03   0.297E+00 0.715E+00 0.217E+01   0.510E-02 0.281E-02 0.177E-01
   0.127E+03 0.387E+02 0.429E+03   -.127E+03 -.385E+02 -.426E+03   0.192E+00 -.485E+00 -.277E+01   0.720E-02 0.111E-02 0.657E-02
   0.133E+03 0.518E+02 -.146E+03   -.132E+03 -.511E+02 0.147E+03   -.338E+00 -.771E+00 -.117E+01   0.666E-02 -.313E-02 0.365E-01
   -.991E+02 -.125E+01 0.487E+03   0.995E+02 0.124E+01 -.484E+03   -.499E+00 0.177E-02 -.309E+01   -.818E-02 0.367E-02 0.704E-02
   -.152E+03 0.116E+01 -.132E+03   0.151E+03 -.123E+01 0.132E+03   0.670E+00 0.707E-01 -.674E+00   -.948E-02 -.539E-03 0.297E-01
   0.130E+03 0.290E+02 0.456E+03   -.130E+03 -.292E+02 -.454E+03   -.200E+00 0.351E+00 -.246E+01   0.104E-01 0.229E-02 0.858E-02
   0.135E+03 0.142E+02 -.174E+03   -.135E+03 -.138E+02 0.174E+03   -.536E+00 -.338E+00 -.158E+00   0.102E-01 0.326E-02 0.356E-01
   0.335E+02 -.114E+03 -.459E+03   -.333E+02 0.113E+03 0.457E+03   -.193E+00 0.109E+01 0.237E+01   0.759E-02 0.420E-02 0.152E-01
   0.129E+03 -.414E+00 0.198E+03   -.129E+03 0.230E+00 -.199E+03   0.274E+00 0.381E-01 0.332E-01   0.109E-01 -.108E-02 0.280E-01
   0.417E+02 0.107E+01 0.143E+03   -.415E+02 -.916E+00 -.144E+03   -.136E+00 -.295E+00 0.333E+00   -.207E-02 0.143E-02 0.261E-01
   0.266E+02 0.192E+02 -.438E+03   -.264E+02 -.190E+02 0.434E+03   -.195E+00 -.140E+00 0.349E+01   0.112E-02 -.328E-02 0.152E-01
   -.407E+02 -.176E+00 0.441E+03   0.409E+02 0.548E+00 -.437E+03   -.355E-01 -.283E+00 -.277E+01   -.518E-02 -.453E-03 0.440E-02
   -.674E+02 -.556E+01 -.133E+03   0.673E+02 0.508E+01 0.133E+03   0.700E-01 0.491E+00 -.710E-01   -.529E-02 -.606E-03 0.344E-01
   0.518E+02 -.356E+01 0.420E+03   -.518E+02 0.292E+01 -.417E+03   -.443E-02 0.142E+00 -.314E+01   -.191E-02 0.944E-03 0.545E-02
   0.947E+02 0.252E+02 -.144E+03   -.947E+02 -.262E+02 0.144E+03   0.385E-01 0.939E+00 0.202E-01   -.158E-02 -.266E-02 0.337E-01
   -.703E+02 -.196E+01 0.171E+03   0.703E+02 0.218E+01 -.171E+03   0.975E-01 0.254E+00 0.170E+00   -.730E-02 -.126E-02 0.243E-01
   -.681E+02 -.607E+01 -.418E+03   0.684E+02 0.628E+01 0.416E+03   -.302E+00 -.208E+00 0.263E+01   -.810E-03 0.380E-02 0.167E-01
   0.413E+02 0.169E+01 0.437E+03   -.405E+02 -.155E+01 -.433E+03   -.838E+00 -.284E+00 -.321E+01   -.183E-02 -.848E-03 0.245E-02
   0.331E+02 -.147E+02 -.122E+03   -.327E+02 0.146E+02 0.122E+03   -.385E+00 0.164E-01 -.474E+00   0.489E-03 0.243E-02 0.357E-01
   -.962E+02 -.828E+00 0.143E+03   0.958E+02 0.663E+00 -.144E+03   0.525E+00 0.216E+00 0.890E-01   -.768E-02 0.612E-03 0.270E-01
   -.822E+02 0.220E+01 -.459E+03   0.814E+02 -.273E+01 0.455E+03   0.759E+00 0.533E+00 0.356E+01   -.228E-02 -.339E-02 0.118E-01
   0.690E+02 -.439E+02 -.442E+03   -.684E+02 0.440E+02 0.439E+03   -.583E+00 -.153E+00 0.322E+01   0.123E-02 0.401E-02 0.182E-01
   0.517E+02 -.527E+01 0.175E+03   -.511E+02 0.507E+01 -.176E+03   -.593E+00 0.631E+00 0.152E+00   -.582E-03 -.107E-02 0.253E-01
   -.141E+03 -.429E+02 0.519E+03   0.141E+03 0.422E+02 -.515E+03   0.836E+00 0.389E-01 -.324E+01   -.660E-02 -.519E-03 0.908E-02
   -.148E+03 -.415E+02 -.132E+03   0.148E+03 0.411E+02 0.132E+03   0.269E+00 0.416E+00 -.744E+00   -.594E-02 0.165E-03 0.309E-01
   -.158E+03 0.516E+01 0.172E+03   0.157E+03 -.522E+01 -.172E+03   0.672E+00 0.429E+00 0.276E+00   -.114E-01 0.353E-03 0.281E-01
   -.131E+03 0.113E+02 -.464E+03   0.131E+03 -.107E+02 0.461E+03   0.420E+00 -.585E+00 0.311E+01   -.418E-02 -.102E-03 0.118E-01
   0.177E+03 -.625E+02 -.528E+03   -.179E+03 0.641E+02 0.529E+03   0.164E+01 -.151E+01 -.252E+00   0.383E-02 0.227E-02 0.471E-01
   0.412E+02 -.358E+02 -.913E+03   -.391E+02 0.372E+02 0.931E+03   -.209E+01 -.135E+01 -.186E+02   0.142E-01 -.436E-02 0.956E-03
 -----------------------------------------------------------------------------------------------
   0.168E+01 0.149E+01 0.233E+02   0.576E-12 0.284E-13 0.455E-12   -.174E+01 -.143E+01 -.252E+02   0.394E-01 -.338E-01 0.181E+01
 
 
 POSITION                                       TOTAL-FORCE (eV/Angst)
 -----------------------------------------------------------------------------------
      8.57631      8.29685     10.39845        -0.090164     -0.157051      0.015247
      8.55884      3.74529     15.13908         0.001048      0.000374      0.000206
      8.55803      6.03495     17.25355        -0.000378      0.002460      0.004976
      8.51616      0.79995     12.43874         0.013163     -0.175991     -0.369900
     13.51934      6.10113     15.28714        -0.004277     -0.001531      0.002090
     13.49094      1.15316     10.44749        -0.022163     -0.418166     -0.052424
     10.03344      3.28428     12.67411        -0.059217      0.380822     -0.588606
      9.99938      8.51861     17.16123         0.001250      0.003227      0.002766
      7.12524      5.81577     10.15765        -0.208628     -0.463638      0.879077
      7.12317      1.22139     14.91565        -0.000375     -0.002219     -0.003415
      8.51222      3.28036     10.20450         0.282986      0.076725      0.742796
      8.54675      8.32115     14.86356         0.000178      0.001923     -0.003859
     10.22263      8.06723     12.77991         0.258110      0.235839     -0.642481
     10.22346      3.73680     17.39404        -0.000865      0.003953     -0.003716
      5.42664      8.10481     10.20639         0.376779      0.052682      0.888510
      5.44888      3.46559     14.98677        -0.003189     -0.000158     -0.006573
      8.52843      5.75423     12.65640        -0.032071     -0.203635     -0.016246
      8.59389      1.37116     17.25234         0.000473     -0.000718      0.002077
      3.84829      7.97317     12.47259        -0.570884      0.421169     -0.402456
      4.07687      3.24365     17.33384         0.001636     -0.008380      0.003523
      3.83912      5.77107     14.77087        -0.001288      0.001461      0.004609
      3.90063      0.73891     10.00000         0.510413     -0.151094      0.402073
     10.14430      6.04433     14.91058         0.000068     -0.001552      0.002757
     10.19112      1.10470     10.13736        -0.218617      0.046987      0.388510
      6.82945      7.99424     12.66670        -0.050917      0.213232     -0.428849
      6.90661      3.63166     17.41173         0.000068      0.001106      0.002536
     11.56378      6.16986     17.22873        -0.000402      0.002685      0.005678
     11.66772      1.05372     12.57547        -0.062279     -0.090626     -0.669891
     11.73919      3.33868     10.41199        -0.271697     -0.094589      0.566471
     11.72387      8.27205     15.19223         0.000778     -0.000752      0.000578
      7.18522      3.24644     12.75390        -0.133547      0.313035     -0.404693
      7.21552      8.47655     17.18488         0.000956      0.000552      0.003243
      6.83590      5.94824     14.98395         0.000980     -0.000104      0.001485
      6.87795      0.97560     10.08695        -0.054906     -0.034032      0.168115
      5.51084      5.55012     12.48419         0.006259      0.361687     -0.354697
      5.65340      1.07417     17.17270        -0.003859     -0.000652     -0.000249
      3.51249      3.50019     12.83519        -0.162229      0.006329     -0.194879
      3.30350      8.81780     17.34854        -0.001711     -0.001487     -0.003867
      3.46798      5.87237     10.40868         0.089974     -0.240405     -0.064491
      3.43674      1.26866     15.20515        -0.001039      0.001159     -0.002916
     11.91771      8.21633     10.24534        -0.159640     -0.006170      0.642757
     11.91096      3.65411     15.06420        -0.001417     -0.000387      0.001419
      5.24135      3.36543     10.32679         0.171387      0.065766      0.115230
      5.16080      8.31689     15.14010         0.001071     -0.000982      0.000281
      5.14642      6.17519     17.38954         0.000341      0.001421     -0.000316
      5.28930      0.99064     12.60849         0.119343     -0.147458     -0.440986
      1.60538      5.84491     12.85122         0.069526     -0.141543     -0.376716
      1.50736      1.63470     17.55554         0.000141      0.002718     -0.001129
     13.72038      5.67134     10.18293         0.205292      0.087533      0.680130
     13.68169      1.13275     15.07057         0.000362      0.001305     -0.002287
      1.63456      8.33987     10.36453        -0.044363     -0.503479      0.158393
      1.76850      3.77732     15.39536         0.001788      0.000809     -0.002259
     13.76831      3.16119     12.53308         0.123300      0.475658     -0.238887
     13.59643      8.52336     17.25456         0.001098      0.001970     -0.000250
      1.99440      3.17314     10.17666        -0.118654     -0.151194      0.680824
      1.83585      8.16270     15.00796        -0.002517     -0.001385     -0.004951
     13.48051      8.37930     12.86886         0.126519      0.050335     -0.421523
     13.26642      4.10050     17.73895        -0.001732      0.002739     -0.000561
      1.75868      6.31664     17.38732         0.001413     -0.000696      0.000260
      2.02729      0.87737     12.46815        -0.022284      0.428140     -0.336899
     10.07171      5.79402     10.14663         0.136783     -0.619557      0.155453
     10.12190      1.23187     14.88862        -0.000066      0.000993     -0.001540
     11.97051      5.66181     12.67660        -0.201409      0.372150     -0.475815
     11.76833      1.39488     17.50543         0.001160      0.002689      0.000706
      3.28576      5.06754     16.66893         0.001038      0.002181     -0.003785
      5.40919      4.37999     18.44769         0.001103     -0.004182     -0.000666
 -----------------------------------------------------------------------------------
    total drift:                               -0.024915      0.034919     -0.102987


--------------------------------------------------------------------------------------------------------



  FREE ENERGIE OF THE ION-ELECTRON SYSTEM (eV)
  ---------------------------------------------------
  free  energy   TOTEN  =      -524.09049567 eV

  energy  without entropy=     -524.08680196  energy(sigma->0) =     -524.08957224
 
 d Force =-0.1663493E-05[-0.148E-04, 0.115E-04]  d Energy =-0.7972224E-04 0.781E-04
 d Force = 0.4434434E+00[ 0.443E+00, 0.443E+00]  d Ewald  = 0.4434434E+00-0.873E-10


--------------------------------------------------------------------------------------------------------


    POTLOK:  cpu time    0.0600: real time    0.0600


--------------------------------------------------------------------------------------------------------




--------------------------------------------------------------------------------------------------------


  
 reached required accuracy - stopping structural energy minimisation
     LOOP+:  cpu time   18.9204: real time   18.9493
    4ORBIT:  cpu time    0.0000: real time    0.0000

 total amount of memory used by VASP on root node    71837. kBytes
========================================================================

   base      :      30000. kBytes
   nonlr-proj:       7019. kBytes
   fftplans  :       3890. kBytes
   grid      :       8747. kBytes
   one-center:         46. kBytes
   wavefun   :      22135. kBytes
 
  
  
 General timing and accounting informations for this job:
 ========================================================
  
                  Total CPU time used (sec):     1460.615
                            User time (sec):     1448.068
                          System time (sec):       12.546
                         Elapsed time (sec):     1462.251
  
                   Maximum memory used (kb):      150524.
                   Average memory used (kb):           0.
  
                          Minor page faults:        59308
                          Major page faults:            0
                 Voluntary context switches:        17326
