 vasp.5.4.1 05Feb16 (build Mar 19 2020 08:54:17) complex                        
  
 executed on           IFC91_ompi date 2021.11.12  22:39:36
 running on   96 total cores
 distrk:  each k-point on   96 cores,    1 groups
 distr:  one band on NCORES_PER_BAND=  24 cores,    4 groups


--------------------------------------------------------------------------------------------------------


 INCAR:
 POTCAR:    PAW_PBE Al 04Jan2001                  
 POTCAR:    PAW_PBE Nb_sv 25May2007               
 POTCAR:    PAW_PBE Ta 17Jan2003                  
 POTCAR:    PAW_PBE Ti 08Apr2002                  
 POTCAR:   PAW_PBE Zr 08Apr2002                   
 POTCAR:    PAW_PBE O 08Apr2002                   

 ----------------------------------------------------------------------------- 
|                                                                             |
|           W    W    AA    RRRRR   N    N  II  N    N   GGGG   !!!           |
|           W    W   A  A   R    R  NN   N  II  NN   N  G    G  !!!           |
|           W    W  A    A  R    R  N N  N  II  N N  N  G       !!!           |
|           W WW W  AAAAAA  RRRRR   N  N N  II  N  N N  G  GGG   !            |
|           WW  WW  A    A  R   R   N   NN  II  N   NN  G    G                |
|           W    W  A    A  R    R  N    N  II  N    N   GGGG   !!!           |
|                                                                             |
|      For optimal performance we recommend to set                            |
|        NCORE= 4 - approx SQRT( number of cores)                             |
|      NCORE specifies how many cores store one orbital (NPAR=cpu/NCORE).     |
|      This setting can  greatly improve the performance of VASP for DFT.     |
|      The default, NPAR=number of cores might be grossly inefficient         |
|      on modern multi-core architectures or massively parallel machines.     |
|      Do your own testing !!!!                                               |
|      Unfortunately you need to use the default for GW and RPA calculations. |
|      (for HF NCORE is supported but not extensively tested yet)             |
|                                                                             |
 ----------------------------------------------------------------------------- 

 POTCAR:    PAW_PBE Al 04Jan2001                  
   VRHFIN =Al: s2p1                                                             
   LEXCH  = PE                                                                  
   EATOM  =    53.5387 eV,    3.9350 Ry                                         
                                                                                
   TITEL  = PAW_PBE Al 04Jan2001                                                
   LULTRA =        F    use ultrasoft PP ?                                      
   IUNSCR =        1    unscreen: 0-lin 1-nonlin 2-no                           
   RPACOR =    1.500    partial core radius                                     
   POMASS =   26.981; ZVAL   =    3.000    mass and valenz                      
   RCORE  =    1.900    outmost cutoff radius                                   
   RWIGS  =    2.650; RWIGS  =    1.402    wigner-seitz radius (au A)           
   ENMAX  =  240.300; ENMIN  =  180.225 eV                                      
   ICORE  =        2    local potential                                         
   LCOR   =        T    correct aug charges                                     
   LPAW   =        T    paw PP                                                  
   EAUG   =  291.052                                                            
   DEXC   =    0.000                                                            
   RMAX   =    1.939    core radius for proj-oper                               
   RAUG   =    1.300    factor for augmentation sphere                          
   RDEP   =    1.966    radius for radial grids                                 
   RDEPT  =    1.856    core radius for aug-charge                              
                                                                                
   Atomic configuration                                                         
    6 entries                                                                   
     n  l   j            E        occ.                                          
     1  0  0.50     -1511.1048   2.0000                                         
     2  0  0.50      -108.1629   2.0000                                         
     2  1  1.50       -69.6402   6.0000                                         
     3  0  0.50        -7.7528   2.0000                                         
     3  1  1.50        -2.7121   1.0000                                         
     3  2  2.50        -2.7212   0.0000                                         
   Description                                                                  
     l       E           TYP  RCUT    TYP  RCUT                                 
     0     -7.7528455     23  1.900                                             
     0     -3.3096929     23  1.900                                             
     1     -2.7120682     23  1.900                                             
     1     13.6058260     23  1.900                                             
     2     -2.7211652      7  1.900                                             
  local pseudopotential read in
  partial core-charges read in
  partial kinetic energy density read in
  atomic valenz-charges read in
  non local Contribution for L=           0  read in
    real space projection operators read in
  non local Contribution for L=           0  read in
    real space projection operators read in
  non local Contribution for L=           1  read in
    real space projection operators read in
  non local Contribution for L=           1  read in
    real space projection operators read in
    PAW grid and wavefunctions read in
 
   number of l-projection  operators is LMAX  =           4
   number of lm-projection operators is LMMAX =           8
 
 POTCAR:    PAW_PBE Nb_sv 25May2007               
   VRHFIN =Nb: 4p5s4d                                                           
   LEXCH  = PE                                                                  
   EATOM  =  1555.1913 eV,  114.3033 Ry                                         
                                                                                
   TITEL  = PAW_PBE Nb_sv 25May2007                                             
   LULTRA =        F    use ultrasoft PP ?                                      
   IUNSCR =        1    unscreen: 0-lin 1-nonlin 2-no                           
   RPACOR =    1.800    partial core radius                                     
   POMASS =   92.910; ZVAL   =   13.000    mass and valenz                      
   RCORE  =    2.400    outmost cutoff radius                                   
   RWIGS  =    2.400; RWIGS  =    1.270    wigner-seitz radius (au A)           
   ENMAX  =  293.235; ENMIN  =  219.927 eV                                      
   ICORE  =        3    local potential                                         
   LCOR   =        T    correct aug charges                                     
   LPAW   =        T    paw PP                                                  
   EAUG   =  455.659                                                            
   DEXC   =    0.000                                                            
   RMAX   =    2.456    core radius for proj-oper                               
   RAUG   =    1.300    factor for augmentation sphere                          
   RDEP   =    2.451    radius for radial grids                                 
   RDEPT  =    1.956    core radius for aug-charge                              
                                                                                
   Atomic configuration                                                         
   11 entries                                                                   
     n  l   j            E        occ.                                          
     1  0  0.50    -18805.2457   2.0000                                         
     2  0  0.50     -2630.2869   2.0000                                         
     2  1  1.50     -2348.4046   6.0000                                         
     3  0  0.50      -438.8757   2.0000                                         
     3  1  1.50      -346.7588   6.0000                                         
     3  2  2.50      -196.2560  10.0000                                         
     4  0  0.50       -58.3859   2.0000                                         
     5  0  0.50        -3.9816   1.0000                                         
     4  1  1.50       -34.5141   6.0000                                         
     4  2  2.50        -3.0408   4.0000                                         
     4  3  2.50        -1.3606   0.0000                                         
   Description                                                                  
     l       E           TYP  RCUT    TYP  RCUT                                 
     0    -58.3859094     23  2.200                                             
     0     -3.9816262     23  2.200                                             
     1    -34.5140738     23  2.200                                             
     1     13.6058260     23  2.200                                             
     2     -3.0408010     23  2.200                                             
     2     -0.1283038     23  2.200                                             
     3     -1.3605826     23  2.400                                             
  local pseudopotential read in
  partial core-charges read in
  partial kinetic energy density read in
  atomic valenz-charges read in
  non local Contribution for L=           0  read in
    real space projection operators read in
  non local Contribution for L=           0  read in
    real space projection operators read in
  non local Contribution for L=           1  read in
    real space projection operators read in
  non local Contribution for L=           1  read in
    real space projection operators read in
  non local Contribution for L=           2  read in
    real space projection operators read in
  non local Contribution for L=           2  read in
    real space projection operators read in
    PAW grid and wavefunctions read in
 
   number of l-projection  operators is LMAX  =           6
   number of lm-projection operators is LMMAX =          18
 
 POTCAR:    PAW_PBE Ta 17Jan2003                  
   VRHFIN =Ta:  6s5d                                                            
   LEXCH  = PE                                                                  
   EATOM  =   130.6506 eV,    9.6025 Ry                                         
                                                                                
   TITEL  = PAW_PBE Ta 17Jan2003                                                
   LULTRA =        F    use ultrasoft PP ?                                      
   IUNSCR =        1    unscreen: 0-lin 1-nonlin 2-no                           
   RPACOR =    2.330    partial core radius                                     
   POMASS =  180.948; ZVAL   =    5.000    mass and valenz                      
   RCORE  =    2.900    outmost cutoff radius                                   
   RWIGS  =    2.840; RWIGS  =    1.503    wigner-seitz radius (au A)           
   ENMAX  =  223.667; ENMIN  =  167.750 eV                                      
   RCLOC  =    2.205    cutoff for local pot                                    
   LCOR   =        T    correct aug charges                                     
   LPAW   =        T    paw PP                                                  
   EAUG   =  332.075                                                            
   DEXC   =    0.000                                                            
   RMAX   =    2.970    core radius for proj-oper                               
   RAUG   =    1.300    factor for augmentation sphere                          
   RDEP   =    3.060    radius for radial grids                                 
   RDEPT  =    2.354    core radius for aug-charge                              
                                                                                
   Atomic configuration                                                         
   16 entries                                                                   
     n  l   j            E        occ.                                          
     1  0  0.50    -67341.2807   2.0000                                         
     2  0  0.50    -11566.9376   2.0000                                         
     2  1  1.50    -10134.1182   6.0000                                         
     3  0  0.50     -2648.5620   2.0000                                         
     3  1  1.50     -2222.6012   6.0000                                         
     3  2  2.50     -1726.3120  10.0000                                         
     4  0  0.50      -538.6961   2.0000                                         
     4  1  1.50      -399.0129   6.0000                                         
     4  2  2.50      -220.3959  10.0000                                         
     4  3  3.50       -23.0374  14.0000                                         
     5  0  0.50       -71.2901   2.0000                                         
     5  1  1.50       -37.8225   6.0000                                         
     5  2  2.50        -2.6455   4.0000                                         
     6  0  0.50        -4.9623   1.0000                                         
     6  1  1.50        -1.3606   0.0000                                         
     5  3  2.50        -1.3606   0.0000                                         
   Description                                                                  
     l       E           TYP  RCUT    TYP  RCUT                                 
     2     -2.6455043     23  2.500                                             
     2     -0.6258895     23  2.500                                             
     0     -4.9622780     23  2.500                                             
     0      4.7531321     23  2.500                                             
     1     -1.3605826     23  2.900                                             
     1     27.2116520     23  2.900                                             
  local pseudopotential read in
  partial core-charges read in
  partial kinetic energy density read in
  atomic valenz-charges read in
  non local Contribution for L=           2  read in
    real space projection operators read in
  non local Contribution for L=           2  read in
    real space projection operators read in
  non local Contribution for L=           0  read in
    real space projection operators read in
  non local Contribution for L=           0  read in
    real space projection operators read in
  non local Contribution for L=           1  read in
    real space projection operators read in
  non local Contribution for L=           1  read in
    real space projection operators read in
    PAW grid and wavefunctions read in
 
   number of l-projection  operators is LMAX  =           6
   number of lm-projection operators is LMMAX =          18
 
 POTCAR:    PAW_PBE Ti 08Apr2002                  
   VRHFIN =Ti: d3 s1                                                            
   LEXCH  = PE                                                                  
   EATOM  =    94.7928 eV,    6.9671 Ry                                         
                                                                                
   TITEL  = PAW_PBE Ti 08Apr2002                                                
   LULTRA =        F    use ultrasoft PP ?                                      
   IUNSCR =        1    unscreen: 0-lin 1-nonlin 2-no                           
   RPACOR =    2.200    partial core radius                                     
   POMASS =   47.880; ZVAL   =    4.000    mass and valenz                      
   RCORE  =    2.800    outmost cutoff radius                                   
   RWIGS  =    2.500; RWIGS  =    1.323    wigner-seitz radius (au A)           
   ENMAX  =  178.330; ENMIN  =  133.747 eV                                      
   RCLOC  =    2.215    cutoff for local pot                                    
   LCOR   =        T    correct aug charges                                     
   LPAW   =        T    paw PP                                                  
   EAUG   =  328.883                                                            
   DEXC   =    0.000                                                            
   RMAX   =    2.868    core radius for proj-oper                               
   RAUG   =    1.300    factor for augmentation sphere                          
   RDEP   =    2.885    radius for radial grids                                 
   RDEPT  =    2.320    core radius for aug-charge                              
                                                                                
   Atomic configuration                                                         
    9 entries                                                                   
     n  l   j            E        occ.                                          
     1  0  0.50     -4865.3608   2.0000                                         
     2  0  0.50      -533.1367   2.0000                                         
     2  1  1.50      -440.5031   6.0000                                         
     3  0  0.50       -59.3186   2.0000                                         
     3  1  1.50       -35.7012   6.0000                                         
     3  2  2.50        -1.9157   3.0000                                         
     4  0  0.50        -3.7291   1.0000                                         
     4  1  1.50        -4.0817   0.0000                                         
     4  3  2.50        -1.3606   0.0000                                         
   Description                                                                  
     l       E           TYP  RCUT    TYP  RCUT                                 
     2     -1.9156924     23  2.800                                             
     2     -0.4062961     23  2.800                                             
     0     -3.7290832     23  2.800                                             
     0     20.4087390     23  2.800                                             
     1     -5.4423304     23  2.800                                             
  local pseudopotential read in
  partial core-charges read in
  partial kinetic energy density read in
  atomic valenz-charges read in
  non local Contribution for L=           2  read in
    real space projection operators read in
  non local Contribution for L=           2  read in
    real space projection operators read in
  non local Contribution for L=           0  read in
    real space projection operators read in
  non local Contribution for L=           0  read in
    real space projection operators read in
  non local Contribution for L=           1  read in
    real space projection operators read in
    PAW grid and wavefunctions read in
 
   number of l-projection  operators is LMAX  =           5
   number of lm-projection operators is LMMAX =          15
 
 POTCAR:   PAW_PBE Zr 08Apr2002                   
   VRHFIN =Zr: 5s4d5p                                                           
   LEXCH  = PE                                                                  
   EATOM  =    77.8472 eV,    5.7216 Ry                                         
                                                                                
   TITEL  = PAW_PBE Zr 08Apr2002                                                
   LULTRA =        F    use ultrasoft PP ?                                      
   IUNSCR =        1    unscreen: 0-lin 1-nonlin 2-no                           
   RPACOR =    2.200    partial core radius                                     
   POMASS =   91.224; ZVAL   =    4.000    mass and valenz                      
   RCORE  =    3.000    outmost cutoff radius                                   
   RWIGS  =    3.070; RWIGS  =    1.625    wigner-seitz radius (au A)           
   ENMAX  =  154.632; ENMIN  =  115.974 eV                                      
   RCLOC  =    2.213    cutoff for local pot                                    
   LCOR   =        T    correct aug charges                                     
   LPAW   =        T    paw PP                                                  
   EAUG   =  243.217                                                            
   DEXC   =    -.082                                                            
   RMAX   =    3.708    core radius for proj-oper                               
   RAUG   =    1.300    factor for augmentation sphere                          
   RDEP   =    3.146    radius for radial grids                                 
   QCUT   =   -3.371; QGAM   =    6.742    optimization parameters              
                                                                                
   Description                                                                  
     l     E      TYP  RCUT    TYP  RCUT                                        
     2   .000     23  3.000                                                     
     2   .000     23  3.000                                                     
     0   .000     23  3.000                                                     
     0  2.000     23  3.000                                                     
     1  -.400     23  3.000                                                     
     3   .000      7   .000                                                     
  local pseudopotential read in
  partial core-charges read in
  atomic valenz-charges read in
  non local Contribution for L=           2  read in
    real space projection operators read in
  non local Contribution for L=           2  read in
    real space projection operators read in
  non local Contribution for L=           0  read in
    real space projection operators read in
  non local Contribution for L=           0  read in
    real space projection operators read in
  non local Contribution for L=           1  read in
    real space projection operators read in
    PAW grid and wavefunctions read in
 
   number of l-projection  operators is LMAX  =           5
   number of lm-projection operators is LMMAX =          15
 
 POTCAR:    PAW_PBE O 08Apr2002                   
   VRHFIN =O: s2p4                                                              
   LEXCH  = PE                                                                  
   EATOM  =   432.3788 eV,   31.7789 Ry                                         
                                                                                
   TITEL  = PAW_PBE O 08Apr2002                                                 
   LULTRA =        F    use ultrasoft PP ?                                      
   IUNSCR =        1    unscreen: 0-lin 1-nonlin 2-no                           
   RPACOR =    1.200    partial core radius                                     
   POMASS =   16.000; ZVAL   =    6.000    mass and valenz                      
   RCORE  =    1.520    outmost cutoff radius                                   
   RWIGS  =    1.550; RWIGS  =    0.820    wigner-seitz radius (au A)           
   ENMAX  =  400.000; ENMIN  =  300.000 eV                                      
   ICORE  =        2    local potential                                         
   LCOR   =        T    correct aug charges                                     
   LPAW   =        T    paw PP                                                  
   EAUG   =  605.392                                                            
   DEXC   =    0.000                                                            
   RMAX   =    1.553    core radius for proj-oper                               
   RAUG   =    1.300    factor for augmentation sphere                          
   RDEP   =    1.550    radius for radial grids                                 
   RDEPT  =    1.329    core radius for aug-charge                              
                                                                                
   Atomic configuration                                                         
    4 entries                                                                   
     n  l   j            E        occ.                                          
     1  0  0.50      -514.6923   2.0000                                         
     2  0  0.50       -23.9615   2.0000                                         
     2  1  0.50        -9.0305   4.0000                                         
     3  2  1.50        -9.5241   0.0000                                         
   Description                                                                  
     l       E           TYP  RCUT    TYP  RCUT                                 
     0    -23.9615318     23  1.200                                             
     0     -9.5240782     23  1.200                                             
     1     -9.0304911     23  1.520                                             
     1      8.1634956     23  1.520                                             
     2     -9.5240782      7  1.500                                             
  local pseudopotential read in
  partial core-charges read in
  partial kinetic energy density read in
  kinetic energy density of atom read in
  atomic valenz-charges read in
  non local Contribution for L=           0  read in
    real space projection operators read in
  non local Contribution for L=           0  read in
    real space projection operators read in
  non local Contribution for L=           1  read in
    real space projection operators read in
  non local Contribution for L=           1  read in
    real space projection operators read in
    PAW grid and wavefunctions read in
 
   number of l-projection  operators is LMAX  =           4
   number of lm-projection operators is LMMAX =           8
 
 Optimization of the real space projectors (new method)

 maximal supplied QI-value         = 19.84
 optimisation between [QCUT,QGAM] = [ 12.50, 25.00] = [ 43.76,175.03] Ry 
 Optimized for a Real-space Cutoff    1.06 Angstroem

   l    n(q)    QCUT    max X(q) W(low)/X(q) W(high)/X(q)  e(spline) 
   0      8    12.501   176.870    0.16E-03    0.12E-03    0.66E-07
   0      8    12.501   105.762    0.15E-03    0.12E-03    0.64E-07
   1      7    12.501    55.370    0.36E-03    0.38E-03    0.67E-07
   1      7    12.501    20.208    0.32E-03    0.35E-03    0.64E-07
 Optimization of the real space projectors (new method)

 maximal supplied QI-value         = 15.68
 optimisation between [QCUT,QGAM] = [ 12.55, 25.10] = [ 44.09,176.36] Ry 
 Optimized for a Real-space Cutoff    1.56 Angstroem

   l    n(q)    QCUT    max X(q) W(low)/X(q) W(high)/X(q)  e(spline) 
   0     12    12.548    10.201    0.21E-04    0.36E-05    0.83E-07
   0     12    12.548     8.174    0.31E-04    0.62E-05    0.15E-06
   1     11    12.548     3.488    0.79E-05    0.23E-04    0.21E-06
   1     11    12.548     4.917    0.56E-04    0.13E-03    0.11E-05
   2     11    12.548   153.744    0.25E-03    0.10E-03    0.15E-05
   2     11    12.548   126.342    0.25E-03    0.10E-03    0.15E-05
 Optimization of the real space projectors (new method)

 maximal supplied QI-value         = 12.85
 optimisation between [QCUT,QGAM] = [ 12.46, 25.06] = [ 43.51,175.83] Ry 
 Optimized for a Real-space Cutoff    1.56 Angstroem

   l    n(q)    QCUT    max X(q) W(low)/X(q) W(high)/X(q)  e(spline) 
   2     11    12.465    62.315    0.36E-03    0.20E-03    0.15E-05
   2     11    12.465    52.185    0.36E-03    0.20E-03    0.15E-05
   0     12    12.465   103.837    0.22E-04    0.37E-05    0.56E-06
   0     12    12.465    59.728    0.20E-04    0.34E-05    0.51E-06
   1     11    12.465    13.958    0.44E-03    0.81E-03    0.81E-05
   1     11    12.465     8.441    0.31E-03    0.56E-03    0.56E-05
 Optimization of the real space projectors (new method)

 maximal supplied QI-value         = 13.42
 optimisation between [QCUT,QGAM] = [ 12.48, 25.09] = [ 43.60,176.28] Ry 
 Optimized for a Real-space Cutoff    1.56 Angstroem

   l    n(q)    QCUT    max X(q) W(low)/X(q) W(high)/X(q)  e(spline) 
   2     11    12.478    49.363    0.45E-03    0.34E-03    0.89E-06
   2     11    12.478    47.669    0.44E-03    0.33E-03    0.87E-06
   0     12    12.478    26.374    0.17E-03    0.37E-04    0.21E-05
   0     12    12.478    11.549    0.13E-03    0.31E-04    0.17E-05
   1     11    12.478     9.492    0.91E-05    0.64E-04    0.34E-06
 Optimization of the real space projectors (new method)

 maximal supplied QI-value         = 12.47
 optimisation between [QCUT,QGAM] = [ 12.47, 25.07] = [ 43.56,175.99] Ry 
 Optimized for a Real-space Cutoff    1.70 Angstroem

   l    n(q)    QCUT    max X(q) W(low)/X(q) W(high)/X(q)  e(spline) 
   2     12    12.472     5.149    0.23E-04    0.12E-05    0.19E-06
   2     12    12.472    48.417    0.26E-03    0.15E-03    0.35E-05
   0     13    12.472    27.113    0.15E-04    0.46E-05    0.14E-06
   0     13    12.472    33.957    0.20E-04    0.33E-04    0.12E-05
   1     12    12.472    13.771    0.11E-04    0.23E-05    0.34E-06
 WARNING: PSMAXN for non-local potential too small
          PSMAXN should be >   12.5490833729506       NTYP=           5
 Optimization of the real space projectors (new method)

 maximal supplied QI-value         = 24.76
 optimisation between [QCUT,QGAM] = [ 12.38, 25.00] = [ 42.90,175.06] Ry 
 Optimized for a Real-space Cutoff    1.13 Angstroem

   l    n(q)    QCUT    max X(q) W(low)/X(q) W(high)/X(q)  e(spline) 
   0      8    12.378    20.381    0.16E-03    0.54E-05    0.27E-06
   0      8    12.378    15.268    0.17E-03    0.61E-05    0.29E-06
   1      8    12.378     5.964    0.38E-03    0.23E-03    0.28E-06
   1      8    12.378     5.382    0.33E-03    0.20E-03    0.25E-06
  PAW_PBE Al 04Jan2001                  :
 energy of atom  1       EATOM=  -53.5387
 kinetic energy error for atom=    0.0002 (will be added to EATOM!!)
  PAW_PBE Nb_sv 25May2007               :
 energy of atom  2       EATOM=-1555.1913
 kinetic energy error for atom=    0.0037 (will be added to EATOM!!)
  PAW_PBE Ta 17Jan2003                  :
 energy of atom  3       EATOM= -130.6506
 kinetic energy error for atom=    0.0004 (will be added to EATOM!!)
  PAW_PBE Ti 08Apr2002                  :
 energy of atom  4       EATOM=  -94.7928
 kinetic energy error for atom=    0.0001 (will be added to EATOM!!)
 PAW_PBE Zr 08Apr2002                   :
 energy of atom  5       EATOM=  -77.8472
 kinetic energy error for atom=    0.0001 (will be added to EATOM!!)
  PAW_PBE O 08Apr2002                   :
 energy of atom  6       EATOM= -432.3788
 kinetic energy error for atom=    0.0168 (will be added to EATOM!!)
 
 
 POSCAR: Al Nb Ta Ti Zr                          
  positions in direct lattice
  velocities in cartesian coordinates
  No initial velocities read in
 exchange correlation table for  LEXCH =        8
   RHO(1)=    0.500       N(1)  =     2000
   RHO(2)=  100.500       N(2)  =     4000
 


--------------------------------------------------------------------------------------------------------


 ion  position               nearest neighbor table
   1  0.623  0.867  0.376-  34 2.83  25 2.88  24 2.88   9 2.88  13 2.90   4 2.91  61 2.93  15 3.16
                            41 3.35  17 3.40
   2  0.622  0.393  0.547-  23 2.79  31 2.80  26 2.80  33 2.81  14 2.81  10 2.90   7 2.90  62 2.96
                            18 3.13   3 3.16  17 3.18  42 3.32
   3  0.616  0.633  0.625-  32 2.84  23 2.87   8 2.89  14 2.89  33 2.90  26 2.94  27 3.05  45 3.09
                             2 3.16
   4  0.618  0.084  0.450-  31 2.80  24 2.86  34 2.87  13 2.88   1 2.91  25 2.92  10 2.92   7 2.92
                            62 2.95  12 3.15  28 3.16  46 3.24
   5  0.980  0.637  0.553-  27 2.77  30 2.82  42 2.93  56 2.96  59 3.03  52 3.06  63 3.07  54 3.08
                            47 3.10  58 3.13  57 3.34
   6  0.980  0.121  0.378-  29 2.80  28 2.80  53 2.91  41 2.96  51 3.05  55 3.05  60 3.08  57 3.37

   7  0.729  0.343  0.458-  28 2.77  29 2.83  31 2.85  17 2.89   2 2.90  11 2.90   4 2.92  62 3.01
                            42 3.04  63 3.07
   8  0.722  0.893  0.621-  30 2.62  12 2.72  32 2.74  18 2.83  27 2.86   3 2.89  64 3.00  62 3.22

   9  0.517  0.608  0.367-  35 2.84  15 2.85  17 2.87   1 2.88  11 2.89  61 2.95  43 3.10
  10  0.513  0.135  0.540-  18 2.74  36 2.76  16 2.85  12 2.89   2 2.90   4 2.92  31 2.92  46 2.94
                            62 3.04  44 3.16
  11  0.618  0.343  0.369-  24 2.75  34 2.83  31 2.87   9 2.89   7 2.90  61 2.96  43 3.27
  12  0.618  0.874  0.537-  13 2.71   8 2.72  32 2.73  23 2.79  25 2.79  10 2.89  33 2.91  62 2.92
                             4 3.15  44 3.34
  13  0.742  0.843  0.462-  12 2.71  17 2.87   4 2.88  30 2.90   1 2.90  23 2.94  28 2.94  63 2.98
                            41 3.05  57 3.27  62 3.45
  14  0.744  0.393  0.629-  27 2.72   2 2.81  64 2.84  42 2.86  18 2.88   3 2.89  58 3.08
  15  0.394  0.847  0.369-  22 2.68  19 2.76  25 2.83  34 2.84   9 2.85  39 2.98   1 3.16  46 3.43

  16  0.389  0.372  0.544-  21 2.66  26 2.71  20 2.76  33 2.84  10 2.85  37 2.88  31 2.95  40 2.98
                            45 3.45
  17  0.619  0.602  0.458-  23 2.79  33 2.81  25 2.81  31 2.85   9 2.87  13 2.87   7 2.89  61 2.95
                            35 3.03   2 3.18   1 3.40  63 3.44
  18  0.620  0.150  0.623-  10 2.74  32 2.76  26 2.78  62 2.82   8 2.83  14 2.88  36 3.01   2 3.13
                            64 3.21
  19  0.279  0.834  0.451-  15 2.76  35 2.94  46 2.96  39 2.97  25 2.99  44 3.06  60 3.07  51 3.08
                            47 3.12  56 3.20  21 3.21
  20  0.279  0.366  0.628-  65 2.00  66 2.16  16 2.76  36 2.82  52 2.98  48 2.99  26 3.00  45 3.00
                            40 3.14  59 3.16
  21  0.279  0.600  0.534-  16 2.66  35 2.84  44 2.95  47 2.96  52 2.98  37 2.98  33 3.02  45 3.08
                            56 3.14  59 3.15  19 3.21
  22  0.283  0.077  0.361-  15 2.68  46 2.97  43 2.97  34 2.99  51 3.02  55 3.10  60 3.10
  23  0.734  0.635  0.540-  27 2.72  30 2.75   2 2.79  12 2.79  17 2.79   3 2.87  13 2.94  63 2.95
                            42 3.00
  24  0.740  0.115  0.366-  29 2.73  11 2.75  28 2.85   4 2.86   1 2.88  41 3.00
  25  0.496  0.836  0.458-  35 2.78  12 2.79  17 2.81  15 2.83   1 2.88   4 2.92  19 2.99  46 2.99
                            33 3.01  44 3.04
  26  0.496  0.378  0.626-  66 2.07  36 2.70  16 2.71  18 2.78   2 2.80  45 2.85   3 2.94  20 3.00

  27  0.837  0.644  0.624-  23 2.72  14 2.72   5 2.77  58 2.78   8 2.86  30 2.92   3 3.05  54 3.15
                            42 3.35
  28  0.847  0.110  0.455-   7 2.77  62 2.80   6 2.80  24 2.85  57 2.90  13 2.94  53 2.98  29 3.15
                             4 3.16  50 3.21  41 3.36
  29  0.852  0.349  0.376-  24 2.73   6 2.80   7 2.83  53 2.94  61 2.98  49 3.07  28 3.15  63 3.25

  30  0.851  0.866  0.551-   8 2.62  23 2.75   5 2.82  54 2.84  13 2.90  27 2.92  57 2.97  62 3.02
                            50 3.09  64 3.46
  31  0.522  0.339  0.461-   2 2.80   4 2.80  17 2.85   7 2.85  35 2.86  11 2.87  10 2.92  46 2.95
                            16 2.95  43 3.11
  32  0.523  0.897  0.624-  12 2.73   8 2.74  18 2.76  36 2.79   3 2.84  44 2.89  45 3.10
  33  0.498  0.624  0.539-  35 2.79   2 2.81  17 2.81  16 2.84   3 2.90  44 2.90  12 2.91  45 2.91
                            25 3.01  21 3.02
  34  0.499  0.102  0.365-  11 2.83   1 2.83  15 2.84   4 2.87  43 2.91  46 2.98  22 2.99
  35  0.400  0.580  0.451-  25 2.78  33 2.79  21 2.84   9 2.84  31 2.86  37 2.88  39 2.93  19 2.94
                            17 3.03  43 3.08
  36  0.402  0.131  0.623-  26 2.70  10 2.76  32 2.79  20 2.82  40 2.92  18 3.01  38 3.02  44 3.22

  37  0.255  0.366  0.464-  16 2.88  35 2.88  21 2.98  47 3.02  60 3.04  43 3.05  55 3.08  46 3.08
                            52 3.09  40 3.23  39 3.39
  38  0.239  0.920  0.624-  56 2.80  44 2.85  48 2.92  40 2.93  59 3.02  36 3.02  54 3.39  45 3.44

  39  0.252  0.614  0.376-  35 2.93  19 2.97  15 2.98  47 3.07  43 3.07  51 3.07  55 3.08  37 3.39
                            49 3.53
  40  0.250  0.134  0.549-  36 2.92  38 2.93  16 2.98  48 3.01  52 3.04  44 3.06  60 3.08  20 3.14
                            56 3.15  46 3.17  37 3.23  50 3.57
  41  0.865  0.859  0.370-   6 2.96  24 3.00  61 3.05  13 3.05  57 3.06  49 3.12   1 3.35  28 3.36
                            51 3.49  63 3.53
  42  0.863  0.382  0.544-  14 2.86   5 2.93  58 2.99  23 3.00  62 3.01   7 3.04  50 3.09  63 3.11
                            53 3.18   2 3.32  27 3.35  64 3.36  52 3.58
  43  0.381  0.352  0.373-  34 2.91  22 2.97  37 3.05  39 3.07  35 3.08   9 3.10  31 3.11  55 3.26
                            11 3.27  46 3.29
  44  0.377  0.871  0.550-  38 2.85  32 2.89  33 2.90  21 2.95  25 3.04  40 3.06  19 3.06  10 3.16
                            45 3.17  36 3.22  12 3.34  56 3.36  46 3.42
  45  0.392  0.635  0.630-  66 2.09  65 2.14  26 2.85  33 2.91  20 3.00  21 3.08   3 3.09  32 3.10
                            44 3.17  59 3.39  38 3.44  16 3.45
  46  0.384  0.104  0.456-  10 2.94  31 2.95  19 2.96  22 2.97  34 2.98  25 2.99  37 3.08  40 3.17
                             4 3.24  60 3.27  43 3.29  44 3.42  15 3.43
  47  0.117  0.611  0.465-  21 2.96  37 3.02  39 3.07   5 3.10  19 3.12  56 3.13  53 3.14  49 3.15
                            57 3.17  52 3.23  63 3.42  51 3.52  55 3.80
  48  0.113  0.164  0.633-  38 2.92  50 2.97  20 2.99  40 3.01  52 3.09  54 3.16  58 3.21  64 3.60

  49  0.996  0.593  0.368-  63 3.05  29 3.07  41 3.12  47 3.15  51 3.16  55 3.23  53 3.44  39 3.53
                            61 3.65  57 3.82
  50  0.992  0.117  0.546-  48 2.97  64 3.08  30 3.09  42 3.09  54 3.14  52 3.20  57 3.21  56 3.21
                            28 3.21  53 3.28  60 3.40  62 3.56  40 3.57
  51  0.119  0.872  0.375-  60 3.00  22 3.02   6 3.05  39 3.07  19 3.08  57 3.16  49 3.16  41 3.49
                            47 3.52
  52  0.123  0.393  0.554-  21 2.98  20 2.98  40 3.04   5 3.06  59 3.07  37 3.09  48 3.09  50 3.20
                            58 3.20  47 3.23  53 3.31  42 3.58
  53  1.000  0.331  0.453-   6 2.91  29 2.94  28 2.98  60 3.06  63 3.08  55 3.09  47 3.14  42 3.18
                            50 3.28  52 3.31  49 3.44
  54  0.994  0.883  0.625-  30 2.84  56 3.04   5 3.08  50 3.14  27 3.15  64 3.16  59 3.16  48 3.16
                            38 3.39
  55  0.145  0.332  0.368-   6 3.05  37 3.08  39 3.08  53 3.09  22 3.10  49 3.23  60 3.24  43 3.26
                            47 3.80
  56  0.134  0.852  0.541-  38 2.80   5 2.96  57 3.00  54 3.04  47 3.13  21 3.14  59 3.14  40 3.15
                            19 3.20  50 3.21  44 3.36  60 3.40
  57  0.979  0.876  0.465-  28 2.90  30 2.97  56 3.00  41 3.06  63 3.11  60 3.13  51 3.16  47 3.17
                            50 3.21  13 3.27   5 3.34   6 3.37  49 3.82
  58  0.966  0.423  0.638-  27 2.78  42 2.99  14 3.08  64 3.11   5 3.13  52 3.20  48 3.21  59 3.22

  59  0.145  0.635  0.626-  65 2.10  38 3.02   5 3.03  52 3.07  56 3.14  21 3.15  54 3.16  20 3.16
                            58 3.22  45 3.39
  60  0.147  0.092  0.451-  51 3.00  37 3.04  53 3.06  19 3.07   6 3.08  40 3.08  22 3.10  57 3.13
                            55 3.24  46 3.27  50 3.40  56 3.40
  61  0.731  0.606  0.367-   1 2.93  17 2.95   9 2.95  11 2.96  29 2.98  41 3.05  63 3.17  49 3.65

  62  0.734  0.129  0.538-  28 2.80  18 2.82  12 2.92   4 2.95   2 2.96  42 3.01   7 3.01  30 3.02
                            10 3.04  64 3.08   8 3.22  13 3.45  50 3.56
  63  0.869  0.592  0.458-  23 2.95  13 2.98  49 3.05   7 3.07   5 3.07  53 3.08  42 3.11  57 3.11
                            61 3.17  29 3.25  47 3.42  17 3.44  41 3.53
  64  0.853  0.142  0.632-  14 2.84   8 3.00  50 3.08  62 3.08  58 3.11  54 3.16  18 3.21  42 3.36
                            30 3.46  48 3.60
  65  0.264  0.548  0.663-  20 2.00  59 2.10  45 2.14
  66  0.392  0.455  0.673-  26 2.07  45 2.09  20 2.16
 
  LATTYP: Found a simple orthorhombic cell.
 ALAT       =     9.5644817352
 B/A-ratio  =     1.4398428730
 C/A-ratio  =     2.8922184390
  
  Lattice vectors:
  
 A1 = (   0.0000000000,  -9.5644817352,   0.0000000000)
 A2 = ( -13.7713508606,   0.0000000000,   0.0000000000)
 A3 = (   0.0000000000,   0.0000000000, -27.6625704340)


Analysis of symmetry for initial positions (statically):
=====================================================================
 Subroutine PRICEL returns:
 Original cell was already a primitive cell.
 

 Routine SETGRP: Setting up the symmetry group for a 
 simple orthorhombic supercell.


 Subroutine GETGRP returns: Found  1 space group operations
 (whereof  1 operations were pure point group operations)
 out of a pool of  8 trial point group operations.


The static configuration has the point symmetry C_1 .


Analysis of symmetry for dynamics (positions and initial velocities):
=====================================================================
 Subroutine PRICEL returns:
 Original cell was already a primitive cell.
 

 Routine SETGRP: Setting up the symmetry group for a 
 simple orthorhombic supercell.


 Subroutine GETGRP returns: Found  1 space group operations
 (whereof  1 operations were pure point group operations)
 out of a pool of  8 trial point group operations.


The dynamic configuration has the point symmetry C_1 .


Analysis of constrained symmetry for selective dynamics:
=====================================================================
 Subroutine PRICEL returns:
 Original cell was already a primitive cell.
 

 Routine SETGRP: Setting up the symmetry group for a 
 simple orthorhombic supercell.


 Subroutine GETGRP returns: Found  1 space group operations
 (whereof  1 operations were pure point group operations)
 out of a pool of  8 trial point group operations.


The constrained configuration has the point symmetry C_1 .


 Subroutine INISYM returns: Found  1 space group operations
 (whereof  1 operations are pure point group operations),
 and found     1 'primitive' translations

 
 
 KPOINTS: k-points                                

Automatic generation of k-mesh.
Space group operators:
 irot       det(A)        alpha          n_x          n_y          n_z        tau_x        tau_y        tau_z
    1     1.000000     0.000000     1.000000     0.000000     0.000000     0.000000     0.000000     0.000000
 
 Subroutine IBZKPT returns following result:
 ===========================================
 
 Found      5 irreducible k-points:
 
 Following reciprocal coordinates:
            Coordinates               Weight
  0.000000  0.000000  0.000000      1.000000
  0.333333  0.000000  0.000000      2.000000
  0.000000  0.333333  0.000000      2.000000
  0.333333  0.333333  0.000000      2.000000
 -0.333333  0.333333  0.000000      2.000000
 
 Following cartesian coordinates:
            Coordinates               Weight
  0.000000  0.000000  0.000000      1.000000
  0.024205  0.000000  0.000000      2.000000
  0.000000  0.034851  0.000000      2.000000
  0.024205  0.034851  0.000000      2.000000
 -0.024205  0.034851  0.000000      2.000000
 


--------------------------------------------------------------------------------------------------------




 Dimension of arrays:
   k-points           NKPTS =      5   k-points in BZ     NKDIM =      5   number of bands    NBANDS=    216
   number of dos      NEDOS =    301   number of ions     NIONS =     66
   non local maximal  LDIM  =      6   non local SUM 2l+1 LMDIM =     18
   total plane-waves  NPLWV = 846720
   max r-space proj   IRMAX =   4874   max aug-charges    IRDMAX=  25433
   dimension x,y,z NGX =    84 NGY =   60 NGZ =  168
   dimension x,y,z NGXF=   168 NGYF=  120 NGZF=  336
   support grid    NGXF=   168 NGYF=  120 NGZF=  336
   ions per type =               6  10   4  18  26   2
 NGX,Y,Z   is equivalent  to a cutoff of  10.14, 10.43, 10.10 a.u.
 NGXF,Y,Z  is equivalent  to a cutoff of  20.28, 20.86, 20.19 a.u.


 I would recommend the setting:
   dimension x,y,z NGX =    83 NGY =   57 NGZ =  166
 SYSTEM =  (110) surface                           
 POSCAR =  Al Nb Ta Ti Zr                          

 Startparameter for this run:
   NWRITE =      2    write-flag & timer
   PREC   = normal    normal or accurate (medium, high low for compatibility)
   ISTART =      0    job   : 0-new  1-cont  2-samecut
   ICHARG =      2    charge: 1-file 2-atom 10-const
   ISPIN  =      1    spin polarized calculation?
   LNONCOLLINEAR =      F non collinear calculations
   LSORBIT =      F    spin-orbit coupling
   INIWAV =      1    electr: 0-lowe 1-rand  2-diag
   LASPH  =      F    aspherical Exc in radial PAW
   METAGGA=      F    non-selfconsistent MetaGGA calc.

 Electronic Relaxation 1
   ENCUT  =  600.0 eV  44.10 Ry    6.64 a.u.  27.50 19.10 55.25*2*pi/ulx,y,z
   ENINI  =  600.0     initial cutoff
   ENAUG  =  605.4 eV  augmentation charge cutoff
   NELM   =     60;   NELMIN=  2; NELMDL= -5     # of ELM steps 
   EDIFF  = 0.1E-03   stopping-criterion for ELM
   LREAL  =      T    real-space projection
   NLSPLINE    = F    spline interpolate recip. space projectors
   LCOMPAT=      F    compatible to vasp.4.4
   GGA_COMPAT  = T    GGA compatible to vasp.4.4-vasp.4.6
   LMAXPAW     = -100 max onsite density
   LMAXMIX     =    2 max onsite mixed and CHGCAR
   VOSKOWN=      0    Vosko Wilk Nusair interpolation
   ROPT   =   -0.00050  -0.00050  -0.00050  -0.00050
   ROPT   =   -0.00050  -0.00050
 Ionic relaxation
   EDIFFG = -.1E-01   stopping-criterion for IOM
   NSW    =    200    number of steps for IOM
   NBLOCK =      1;   KBLOCK =    200    inner block; outer block 
   IBRION =      2    ionic relax: 0-MD 1-quasi-New 2-CG
   NFREE  =      1    steps in history (QN), initial steepest desc. (CG)
   ISIF   =      2    stress and relaxation
   IWAVPR =     11    prediction:  0-non 1-charg 2-wave 3-comb
   ISYM   =      2    0-nonsym 1-usesym 2-fastsym
   LCORR  =      T    Harris-Foulkes like correction to forces

   POTIM  = 0.1000    time-step for ionic-motion
   TEIN   =    0.0    initial temperature
   TEBEG  =    0.0;   TEEND  =   0.0 temperature during run
   SMASS  =  -3.00    Nose mass-parameter (am)
   estimated Nose-frequenzy (Omega)   =  0.10E-29 period in steps =****** mass=  -0.433E-26a.u.
   SCALEE = 1.0000    scale energy and forces
   NPACO  =    256;   APACO  = 16.0  distance and # of slots for P.C.
   PSTRESS=    0.0 pullay stress

  Mass of Ions in am
   POMASS =  26.98 92.91180.95 47.88 91.22 16.00
  Ionic Valenz
   ZVAL   =   3.00 13.00  5.00  4.00  4.00  6.00
  Atomic Wigner-Seitz radii
   RWIGS  =  -1.00 -1.00 -1.00 -1.00 -1.00 -1.00
  virtual crystal weights 
   VCA    =   1.00  1.00  1.00  1.00  1.00  1.00
   NELECT =     356.0000    total number of electrons
   NUPDOWN=      -1.0000    fix difference up-down

 DOS related values:
   EMIN   =  10.00;   EMAX   =-10.00  energy-range for DOS
   EFERMI =   0.00
   ISMEAR =     2;   SIGMA  =   0.10  broadening in eV -4-tet -1-fermi 0-gaus

 Electronic relaxation 2 (details)
   IALGO  =     68    algorithm
   LDIAG  =      T    sub-space diagonalisation (order eigenvalues)
   LSUBROT=      F    optimize rotation matrix (better conditioning)
   TURBO    =      0    0=normal 1=particle mesh
   IRESTART =      0    0=no restart 2=restart with 2 vectors
   NREBOOT  =      0    no. of reboots
   NMIN     =      0    reboot dimension
   EREF     =   0.00    reference energy to select bands
   IMIX   =      4    mixing-type and parameters
     AMIX     =   0.40;   BMIX     =  1.00
     AMIX_MAG =   1.60;   BMIX_MAG =  1.00
     AMIN     =   0.10
     WC   =   100.;   INIMIX=   1;  MIXPRE=   1;  MAXMIX= -45

 Intra band minimization:
   WEIMIN = 0.0010     energy-eigenvalue tresh-hold
   EBREAK =  0.12E-06  absolut break condition
   DEPER  =   0.30     relativ break condition  

   TIME   =   0.40     timestep for ELM

  volume/ion in A,a.u.               =      55.21       372.55
  Fermi-wavevector in a.u.,A,eV,Ry     =   0.754017  1.424886  7.735485  0.568542
  Thomas-Fermi vector in A             =   1.851589
 
 Write flags
   LWAVE  =      F    write WAVECAR
   LCHARG =      F    write CHGCAR
   LVTOT  =      F    write LOCPOT, total local potential
   LVHAR  =      F    write LOCPOT, Hartree potential only
   LELF   =      F    write electronic localiz. function (ELF)
   LORBIT =      0    0 simple, 1 ext, 2 COOP (PROOUT)


 Dipole corrections
   LMONO  =      F    monopole corrections only (constant potential shift)
   LDIPOL =      F    correct potential (dipole corrections)
   IDIPOL =      0    1-x, 2-y, 3-z, 4-all directions 
   EPSILON=  1.0000000 bulk dielectric constant

 Exchange correlation treatment:
   GGA     =    --    GGA type
   LEXCH   =     8    internal setting for exchange type
   VOSKOWN=      0    Vosko Wilk Nusair interpolation
   LHFCALC =     F    Hartree Fock is set to
   LHFONE  =     F    Hartree Fock one center treatment
   AEXX    =    0.0000 exact exchange contribution

 Linear response parameters
   LEPSILON=     F    determine dielectric tensor
   LRPA    =     F    only Hartree local field effects (RPA)
   LNABLA  =     F    use nabla operator in PAW spheres
   LVEL    =     F    velocity operator in full k-point grid
   LINTERFAST=   F  fast interpolation
   KINTER  =     0    interpolate to denser k-point grid
   CSHIFT  =0.1000    complex shift for real part using Kramers Kronig
   OMEGAMAX=  -1.0    maximum frequency
   DEG_THRESHOLD= 0.2000000E-02 threshold for treating states as degnerate
   RTIME   =    0.100 relaxation time in fs

 Orbital magnetization related:
   ORBITALMAG=     F  switch on orbital magnetization
   LCHIMAG   =     F  perturbation theory with respect to B field
   DQ        =  0.001000  dq finite difference perturbation B field



--------------------------------------------------------------------------------------------------------


 conjugate gradient relaxation of ions
   using selective dynamics as specified on POSCAR
 charge density and potential will be updated during run
 non-spin polarized calculation
 RMM-DIIS sequential band-by-band and
  variant of blocked Davidson during initial phase
 perform sub-space diagonalisation
    before iterative eigenvector-optimisation
 modified Broyden-mixing scheme, WC =      100.0
 initial mixing is a Kerker type mixing with AMIX =  0.4000 and BMIX =      1.0000
 Hartree-type preconditioning will be used
 using additional bands           38
 real space projection scheme for non local part
 use partial core corrections
 calculate Harris-corrections to forces 
   (improved forces if not selfconsistent)
 use gradient corrections 
 use of overlap-Matrix (Vanderbilt PP)
 Methfessel and Paxton  Order N= 2 SIGMA  =   0.10


--------------------------------------------------------------------------------------------------------


  energy-cutoff  :      600.00
  volume of cell :     3643.60
      direct lattice vectors                 reciprocal lattice vectors
    13.771350861  0.000000000  0.000000000     0.072614518  0.000000000  0.000000000
     0.000000000  9.564481735  0.000000000     0.000000000  0.104553496  0.000000000
     0.000000000  0.000000000 27.662570434     0.000000000  0.000000000  0.036149931

  length of vectors
    13.771350861  9.564481735 27.662570434     0.072614518  0.104553496  0.036149931


 
 k-points in units of 2pi/SCALE and weight: k-points                                
   0.00000000  0.00000000  0.00000000       0.111
   0.02420484  0.00000000  0.00000000       0.222
   0.00000000  0.03485117  0.00000000       0.222
   0.02420484  0.03485117  0.00000000       0.222
  -0.02420484  0.03485117  0.00000000       0.222
 
 k-points in reciprocal lattice and weights: k-points                                
   0.00000000  0.00000000  0.00000000       0.111
   0.33333333  0.00000000  0.00000000       0.222
   0.00000000  0.33333333  0.00000000       0.222
   0.33333333  0.33333333  0.00000000       0.222
  -0.33333333  0.33333333  0.00000000       0.222
 
 position of ions in fractional coordinates (direct lattice) 
   0.62276447  0.86746430  0.37590333
   0.62211818  0.39318160  0.54690007
   0.61598308  0.63271709  0.62525940
   0.61839700  0.08363760  0.44965952
   0.98017477  0.63748785  0.55335280
   0.97963780  0.12056648  0.37767599
   0.72857308  0.34338307  0.45816820
   0.72214264  0.89282518  0.62056571
   0.51739597  0.60805875  0.36719826
   0.51326879  0.13510432  0.53951068
   0.61811078  0.34297293  0.36889183
   0.61805900  0.87392454  0.53745702
   0.74231148  0.84345710  0.46199300
   0.74369702  0.39312550  0.62857147
   0.39405298  0.84738672  0.36896032
   0.38881015  0.37242460  0.54396140
   0.61928761  0.60162497  0.45752798
   0.62049112  0.14998469  0.62287164
   0.27944195  0.83362269  0.45088327
   0.27893138  0.36627614  0.62758056
   0.27917910  0.59968192  0.53416776
   0.28324246  0.07725573  0.36149931
   0.73445763  0.63511404  0.53990188
   0.74002355  0.11549973  0.36646499
   0.49591756  0.83582580  0.45790018
   0.49638952  0.37845141  0.62611769
   0.83722447  0.64371490  0.62361252
   0.84724605  0.11017048  0.45460239
   0.85243583  0.34907103  0.37639265
   0.85097532  0.86573600  0.55140976
   0.52175105  0.33942658  0.46105252
   0.52308849  0.89741008  0.62387209
   0.49759643  0.62424259  0.53860513
   0.49943882  0.10200214  0.36464270
   0.40016663  0.58028412  0.45130253
   0.40205539  0.13087110  0.62264745
   0.25505811  0.36595738  0.46399110
   0.23902700  0.91987504  0.62449724
   0.25182599  0.61397660  0.37627308
   0.25041330  0.13354553  0.54862098
   0.86539888  0.85904646  0.37036829
   0.86335100  0.38226334  0.54406142
   0.38059813  0.35186696  0.37331264
   0.37681605  0.87078797  0.54961336
   0.39159724  0.63505651  0.62967429
   0.38408008  0.10357511  0.45579618
   0.11657381  0.61110574  0.46457054
   0.11331611  0.16419263  0.63260362
   0.99629861  0.59295863  0.36811234
   0.99175327  0.11690515  0.54564819
   0.11869311  0.87196302  0.37467704
   0.12263956  0.39254835  0.55368363
   0.99977952  0.33051389  0.45306987
   0.99420130  0.88292897  0.62527887
   0.14482272  0.33176249  0.36788561
   0.13387944  0.85151634  0.54096513
   0.97888047  0.87608504  0.46520830
   0.96550043  0.42289950  0.63844973
   0.14521177  0.63462317  0.62587034
   0.14721048  0.09173214  0.45072276
   0.73135245  0.60578495  0.36679988
   0.73375821  0.12937067  0.53812035
   0.86923259  0.59196168  0.45825814
   0.85258603  0.14159874  0.63242192
   0.26441910  0.54794332  0.66263903
   0.39160000  0.45506000  0.67263903
 
 position of ions in cartesian coordinates  (Angst):
   8.57630799  8.29684649 10.39845223
   8.56740777  3.76057821 15.12866171
   8.48291912  6.05161104 17.29628209
   8.51616202  0.79995025 12.43873821
  13.49833061  6.09724088 15.30716076
  13.49093588  1.15315590 10.44748880
  10.03343557  3.28428114 12.67411000
   9.94487969  8.53941009 17.16644280
   7.12524148  5.81576681 10.15764776
   7.06840460  1.29220283 14.92425223
   8.51222037  3.28035836 10.20449636
   8.51150738  8.35863531 14.86744274
  10.22263181  8.06723005 12.77991378
  10.24171265  3.76004166 17.38790254
   5.42664188  8.10481479 10.20639088
   5.35444100  3.56204827 15.04737066
   8.52842696  5.75423100 12.65640004
   8.54500096  1.43452587 17.23023074
   3.84829318  7.97316903 12.47259035
   3.84126184  3.50324150 17.36049152
   3.84467339  5.73564679 14.77645328
   3.90063135  0.73891098 10.00000000
  10.11447372  6.07453664 14.93507370
  10.19112400  1.10469510 10.13736353
   6.82945470  7.99424061 12.66669595
   6.83595426  3.61969162 17.32002469
  11.52971195  6.15679939 17.25072524
  11.66772263  1.05372358 12.57547056
  11.73919286  3.33868345 10.41198829
  11.71907972  8.28031611 15.25341126
   7.18521672  3.24643930 12.75389771
   7.20363516  8.58326228 17.25790553
   6.85257506  5.97055685 14.89920247
   6.87794726  0.97559764 10.08695433
   5.51083508  5.55011685 12.48418803
   5.53684584  1.25171421 17.22402907
   3.51249472  3.50019267 12.83518635
   3.29172467  8.79812806 17.27519879
   3.46798404  5.87236796 10.40868071
   3.44852942  1.27729383 15.17626653
  11.91771166  8.21633417 10.24533883
  11.88950947  3.65615076 15.05013740
   5.24135036  3.36542512 10.32678719
   5.18926606  8.32863562 15.20371824
   5.39282292  6.07398641 17.41840948
   5.28930157  0.99064225 12.60849381
   1.60537885  5.84490969 12.85121538
   1.56051585  1.57041743 17.49944231
  13.72037774  5.67134198 10.18293350
  13.65778223  1.11813713 15.09403161
   1.63456451  8.33987442 10.36453009
   1.68891245  3.75452153 15.31631244
  13.76831459  3.16119411 12.53307716
  13.69149498  8.44475800 17.29682076
   1.99440444  3.17313630 10.17666150
   1.84370080  8.14431248 14.96448613
  13.48050634  8.37929939 12.86885734
  13.29624516  4.04481456 17.66116053
   1.99976221  6.06984175 17.31318241
   2.02728715  0.87737042 12.46815015
  10.07171117  5.79401911 10.14662739
  10.10484179  1.23736343 14.88579215
  11.97050705  5.66180669 12.67659812
  11.74126129  1.35431857 17.49441601
   3.64140825  5.24079391 18.33029884
   5.39286100  4.35241306 18.60692454
 


--------------------------------------------------------------------------------------------------------


 k-point  1 :   0.0000 0.0000 0.0000  plane waves:  121663
 k-point  2 :   0.3333 0.0000 0.0000  plane waves:  121577
 k-point  3 :   0.0000 0.3333 0.0000  plane waves:  121622
 k-point  4 :   0.3333 0.3333 0.0000  plane waves:  121647
 k-point  5 :  -0.3333 0.3333 0.0000  plane waves:  121647

 maximum and minimum number of plane-waves per node :      5107     5041

 maximum number of plane-waves:    121663
 maximum index in each direction: 
   IXMAX=   27   IYMAX=   19   IZMAX=   55
   IXMIN=  -27   IYMIN=  -19   IZMIN=  -55

 WARNING: aliasing errors must be expected set NGX to 110 to avoid them
 WARNING: aliasing errors must be expected set NGY to  78 to avoid them
 WARNING: aliasing errors must be expected set NGZ to 222 to avoid them
 aliasing errors are usually negligible using standard VASP settings
 and one can safely disregard these warnings

 real space projection operators:
  total allocation   :      29491.74 KBytes
  max/ min on nodes  :       1418.39        997.39


 parallel 3D FFT for wavefunctions:
    minimum data exchange during FFTs selected (reduces bandwidth)
 parallel 3D FFT for charge:
    minimum data exchange during FFTs selected (reduces bandwidth)


 total amount of memory used by VASP on root node    71840. kBytes
========================================================================

   base      :      30000. kBytes
   nonlr-proj:       7022. kBytes
   fftplans  :       3890. kBytes
   grid      :       8747. kBytes
   one-center:         46. kBytes
   wavefun   :      22135. kBytes
 
     INWAV:  cpu time    0.0000: real time    0.0000
 Broyden mixing: mesh for mixing (old mesh)
   NGX = 55   NGY = 39   NGZ =111
  (NGX  =168   NGY  =120   NGZ  =336)
  gives a total of 238095 points

 initial charge density was supplied:
 charge density of overlapping atoms calculated
 number of electron     356.0000000 magnetization 
 keeping initial charge density in first step


--------------------------------------------------------------------------------------------------------


 Maximum index for non-local projection operator          390
 Maximum index for augmentation-charges         1033 (set IRDMAX)


--------------------------------------------------------------------------------------------------------


 First call to EWALD:  gamma=   0.115
 Maximum number of real-space cells 3x 4x 2
 Maximum number of reciprocal cells 3x 2x 5

 FEWALD executed in parallel
    FEWALD:  cpu time    0.0022: real time    0.0022


----------------------------------------- Iteration    1(   1)  ---------------------------------------


    POTLOK:  cpu time    0.0647: real time    0.0704
    SETDIJ:  cpu time    0.0123: real time    0.0136
     EDDAV:  cpu time    4.9441: real time    4.9818
       DOS:  cpu time    0.0009: real time    0.0009
    --------------------------------------------
      LOOP:  cpu time    5.0260: real time    5.0756

 eigenvalue-minimisations  :  2272
 total energy-change (2. order) : 0.3989497E+04  (-0.1291466E+05)
 number of electron     356.0000000 magnetization 
 augmentation part      356.0000000 magnetization 

 Free energy of the ion-electron system (eV)
  ---------------------------------------------------
  alpha Z        PSCENC =       529.78975023
  Ewald energy   TEWEN  =     72637.95261894
  -Hartree energ DENC   =    -91472.80964136
  -exchange      EXHF   =         0.00000000
  -V(xc)+E(xc)   XCENC  =     -3033.03721398
  PAW double counting   =     20132.38007695   -16044.74363903
  entropy T*S    EENTRO =         0.00841444
  eigenvalues    EBANDS =       249.23026769
  atomic energy  EATOM  =     20990.72652202
  Solvation  Ediel_sol  =         0.00000000
  ---------------------------------------------------
  free energy    TOTEN  =      3989.49715590 eV

  energy without entropy =     3989.48874146  energy(sigma->0) =     3989.49505229


--------------------------------------------------------------------------------------------------------




----------------------------------------- Iteration    1(   2)  ---------------------------------------


     EDDAV:  cpu time    5.0835: real time    5.0845
       DOS:  cpu time    0.0008: real time    0.0008
    --------------------------------------------
      LOOP:  cpu time    5.0858: real time    5.0925

 eigenvalue-minimisations  :  2384
 total energy-change (2. order) :-0.3685628E+04  (-0.3576032E+04)
 number of electron     356.0000000 magnetization 
 augmentation part      356.0000000 magnetization 

 Free energy of the ion-electron system (eV)
  ---------------------------------------------------
  alpha Z        PSCENC =       529.78975023
  Ewald energy   TEWEN  =     72637.95261894
  -Hartree energ DENC   =    -91472.80964136
  -exchange      EXHF   =         0.00000000
  -V(xc)+E(xc)   XCENC  =     -3033.03721398
  PAW double counting   =     20132.38007695   -16044.74363903
  entropy T*S    EENTRO =         0.00813927
  eigenvalues    EBANDS =     -3436.39735407
  atomic energy  EATOM  =     20990.72652202
  Solvation  Ediel_sol  =         0.00000000
  ---------------------------------------------------
  free energy    TOTEN  =       303.86925896 eV

  energy without entropy =      303.86111970  energy(sigma->0) =      303.86722415


--------------------------------------------------------------------------------------------------------




----------------------------------------- Iteration    1(   3)  ---------------------------------------


     EDDAV:  cpu time    7.6315: real time    7.6326
       DOS:  cpu time    0.0008: real time    0.0008
    --------------------------------------------
      LOOP:  cpu time    7.6336: real time    7.6400

 eigenvalue-minimisations  :  3952
 total energy-change (2. order) :-0.7808684E+03  (-0.7558124E+03)
 number of electron     356.0000000 magnetization 
 augmentation part      356.0000000 magnetization 

 Free energy of the ion-electron system (eV)
  ---------------------------------------------------
  alpha Z        PSCENC =       529.78975023
  Ewald energy   TEWEN  =     72637.95261894
  -Hartree energ DENC   =    -91472.80964136
  -exchange      EXHF   =         0.00000000
  -V(xc)+E(xc)   XCENC  =     -3033.03721398
  PAW double counting   =     20132.38007695   -16044.74363903
  entropy T*S    EENTRO =         0.00394269
  eigenvalues    EBANDS =     -4217.26159631
  atomic energy  EATOM  =     20990.72652202
  Solvation  Ediel_sol  =         0.00000000
  ---------------------------------------------------
  free energy    TOTEN  =      -476.99917984 eV

  energy without entropy =     -477.00312253  energy(sigma->0) =     -477.00016552


--------------------------------------------------------------------------------------------------------




----------------------------------------- Iteration    1(   4)  ---------------------------------------


     EDDAV:  cpu time    7.3143: real time    7.3143
       DOS:  cpu time    0.0008: real time    0.0008
    --------------------------------------------
      LOOP:  cpu time    7.3163: real time    7.3222

 eigenvalue-minimisations  :  3752
 total energy-change (2. order) :-0.1058091E+03  (-0.1016358E+03)
 number of electron     356.0000000 magnetization 
 augmentation part      356.0000000 magnetization 

 Free energy of the ion-electron system (eV)
  ---------------------------------------------------
  alpha Z        PSCENC =       529.78975023
  Ewald energy   TEWEN  =     72637.95261894
  -Hartree energ DENC   =    -91472.80964136
  -exchange      EXHF   =         0.00000000
  -V(xc)+E(xc)   XCENC  =     -3033.03721398
  PAW double counting   =     20132.38007695   -16044.74363903
  entropy T*S    EENTRO =         0.00399282
  eigenvalues    EBANDS =     -4323.07076151
  atomic energy  EATOM  =     20990.72652202
  Solvation  Ediel_sol  =         0.00000000
  ---------------------------------------------------
  free energy    TOTEN  =      -582.80829492 eV

  energy without entropy =     -582.81228774  energy(sigma->0) =     -582.80929312


--------------------------------------------------------------------------------------------------------




----------------------------------------- Iteration    1(   5)  ---------------------------------------


     EDDAV:  cpu time    7.4734: real time    7.4734
       DOS:  cpu time    0.0009: real time    0.0009
    CHARGE:  cpu time    0.1570: real time    0.1583
    MIXING:  cpu time    0.0059: real time    0.0071
    --------------------------------------------
      LOOP:  cpu time    7.6385: real time    7.6475

 eigenvalue-minimisations  :  3848
 total energy-change (2. order) :-0.1378479E+02  (-0.1336190E+02)
 number of electron     356.0000012 magnetization 
 augmentation part       43.3734470 magnetization 

 Broyden mixing:
  rms(total) = 0.61279E+01    rms(broyden)= 0.61279E+01
  rms(prec ) = 0.67249E+01
  weight for this iteration     100.00

 Free energy of the ion-electron system (eV)
  ---------------------------------------------------
  alpha Z        PSCENC =       529.78975023
  Ewald energy   TEWEN  =     72637.95261894
  -Hartree energ DENC   =    -91472.80964136
  -exchange      EXHF   =         0.00000000
  -V(xc)+E(xc)   XCENC  =     -3033.03721398
  PAW double counting   =     20132.38007695   -16044.74363903
  entropy T*S    EENTRO =        -0.00198193
  eigenvalues    EBANDS =     -4336.84957228
  atomic energy  EATOM  =     20990.72652202
  Solvation  Ediel_sol  =         0.00000000
  ---------------------------------------------------
  free energy    TOTEN  =      -596.59308043 eV

  energy without entropy =     -596.59109850  energy(sigma->0) =     -596.59258495


--------------------------------------------------------------------------------------------------------




----------------------------------------- Iteration    1(   6)  ---------------------------------------


    POTLOK:  cpu time    0.0541: real time    0.0541
    SETDIJ:  cpu time    0.0062: real time    0.0062
    EDDIAG:  cpu time    0.7826: real time    0.7835
  RMM-DIIS:  cpu time    4.0229: real time    4.0235
    ORTHCH:  cpu time    0.2250: real time    0.2250
       DOS:  cpu time    0.0008: real time    0.0008
    CHARGE:  cpu time    0.1498: real time    0.1498
    MIXING:  cpu time    0.0038: real time    0.0065
    --------------------------------------------
      LOOP:  cpu time    5.2468: real time    5.2573

 eigenvalue-minimisations  :  3552
 total energy-change (2. order) :-0.5218102E+02  (-0.1438566E+03)
 number of electron     356.0000011 magnetization 
 augmentation part       58.2474317 magnetization 

 Broyden mixing:
  rms(total) = 0.42996E+01    rms(broyden)= 0.42995E+01
  rms(prec ) = 0.55626E+01
  weight for this iteration     100.00

 eigenvalues of (default mixing * dielectric matrix)
  average eigenvalue GAMMA=   0.7152
  0.7152

 Free energy of the ion-electron system (eV)
  ---------------------------------------------------
  alpha Z        PSCENC =       529.78975023
  Ewald energy   TEWEN  =     72637.95261894
  -Hartree energ DENC   =    -92143.73213492
  -exchange      EXHF   =         0.00000000
  -V(xc)+E(xc)   XCENC  =     -3021.04833763
  PAW double counting   =     23679.85969279   -19595.38637402
  entropy T*S    EENTRO =         0.01090128
  eigenvalues    EBANDS =     -3726.94674276
  atomic energy  EATOM  =     20990.72652202
  Solvation  Ediel_sol  =         0.00000000
  ---------------------------------------------------
  free energy    TOTEN  =      -648.77410407 eV

  energy without entropy =     -648.78500535  energy(sigma->0) =     -648.77682939


--------------------------------------------------------------------------------------------------------




----------------------------------------- Iteration    1(   7)  ---------------------------------------


    POTLOK:  cpu time    0.0504: real time    0.0504
    SETDIJ:  cpu time    0.0061: real time    0.0061
    EDDIAG:  cpu time    0.7829: real time    0.7830
  RMM-DIIS:  cpu time    2.7728: real time    2.7729
    ORTHCH:  cpu time    0.2237: real time    0.2237
       DOS:  cpu time    0.0009: real time    0.0009
    CHARGE:  cpu time    0.1543: real time    0.1543
    MIXING:  cpu time    0.0020: real time    0.0024
    --------------------------------------------
      LOOP:  cpu time    3.9945: real time    4.0015

 eigenvalue-minimisations  :  2421
 total energy-change (2. order) : 0.1002029E+03  (-0.3150047E+02)
 number of electron     356.0000011 magnetization 
 augmentation part       50.4364950 magnetization 

 Broyden mixing:
  rms(total) = 0.30027E+01    rms(broyden)= 0.30027E+01
  rms(prec ) = 0.41562E+01
  weight for this iteration     100.00

 eigenvalues of (default mixing * dielectric matrix)
  average eigenvalue GAMMA=   0.7424
  1.1296  0.3552

 Free energy of the ion-electron system (eV)
  ---------------------------------------------------
  alpha Z        PSCENC =       529.78975023
  Ewald energy   TEWEN  =     72637.95261894
  -Hartree energ DENC   =    -91742.76198574
  -exchange      EXHF   =         0.00000000
  -V(xc)+E(xc)   XCENC  =     -3021.91749661
  PAW double counting   =     24051.23801140   -19978.90894650
  entropy T*S    EENTRO =        -0.01197447
  eigenvalues    EBANDS =     -4014.67766677
  atomic energy  EATOM  =     20990.72652202
  Solvation  Ediel_sol  =         0.00000000
  ---------------------------------------------------
  free energy    TOTEN  =      -548.57116751 eV

  energy without entropy =     -548.55919304  energy(sigma->0) =     -548.56817389


--------------------------------------------------------------------------------------------------------




----------------------------------------- Iteration    1(   8)  ---------------------------------------


    POTLOK:  cpu time    0.0502: real time    0.0502
    SETDIJ:  cpu time    0.0063: real time    0.0063
    EDDIAG:  cpu time    0.7801: real time    0.7801
  RMM-DIIS:  cpu time    3.8954: real time    3.8956
    ORTHCH:  cpu time    0.2260: real time    0.2260
       DOS:  cpu time    0.0009: real time    0.0009
    CHARGE:  cpu time    0.1620: real time    0.1620
    MIXING:  cpu time    0.0023: real time    0.0030
    --------------------------------------------
      LOOP:  cpu time    5.1247: real time    5.1320

 eigenvalue-minimisations  :  3373
 total energy-change (2. order) :-0.3323880E+02  (-0.1873485E+02)
 number of electron     356.0000009 magnetization 
 augmentation part       49.5993731 magnetization 

 Broyden mixing:
  rms(total) = 0.30436E+01    rms(broyden)= 0.30436E+01
  rms(prec ) = 0.58541E+01
  weight for this iteration     100.00

 eigenvalues of (default mixing * dielectric matrix)
  average eigenvalue GAMMA=   0.6471
  1.3010  0.3820  0.2583

 Free energy of the ion-electron system (eV)
  ---------------------------------------------------
  alpha Z        PSCENC =       529.78975023
  Ewald energy   TEWEN  =     72637.95261894
  -Hartree energ DENC   =    -91816.55870308
  -exchange      EXHF   =         0.00000000
  -V(xc)+E(xc)   XCENC  =     -3020.34585220
  PAW double counting   =     24870.21635961   -20799.14588123
  entropy T*S    EENTRO =        -0.00861132
  eigenvalues    EBANDS =     -3974.43617527
  atomic energy  EATOM  =     20990.72652202
  Solvation  Ediel_sol  =         0.00000000
  ---------------------------------------------------
  free energy    TOTEN  =      -581.80997231 eV

  energy without entropy =     -581.80136098  energy(sigma->0) =     -581.80781948


--------------------------------------------------------------------------------------------------------




----------------------------------------- Iteration    1(   9)  ---------------------------------------


    POTLOK:  cpu time    0.0504: real time    0.0505
    SETDIJ:  cpu time    0.0060: real time    0.0060
    EDDIAG:  cpu time    0.7866: real time    0.7866
  RMM-DIIS:  cpu time    4.0212: real time    4.0212
    ORTHCH:  cpu time    0.2248: real time    0.2248
       DOS:  cpu time    0.0009: real time    0.0009
    CHARGE:  cpu time    0.1527: real time    0.1527
    MIXING:  cpu time    0.0020: real time    0.0020
    --------------------------------------------
      LOOP:  cpu time    5.2463: real time    5.2527

 eigenvalue-minimisations  :  3527
 total energy-change (2. order) : 0.4746743E+02  (-0.6774962E+01)
 number of electron     356.0000010 magnetization 
 augmentation part       48.1443345 magnetization 

 Broyden mixing:
  rms(total) = 0.18619E+01    rms(broyden)= 0.18619E+01
  rms(prec ) = 0.24077E+01
  weight for this iteration     100.00

 eigenvalues of (default mixing * dielectric matrix)
  average eigenvalue GAMMA=   0.6187
  1.5172  0.3959  0.3959  0.1657

 Free energy of the ion-electron system (eV)
  ---------------------------------------------------
  alpha Z        PSCENC =       529.78975023
  Ewald energy   TEWEN  =     72637.95261894
  -Hartree energ DENC   =    -91867.49796568
  -exchange      EXHF   =         0.00000000
  -V(xc)+E(xc)   XCENC  =     -3018.67434236
  PAW double counting   =     25318.55309073   -21245.26984947
  entropy T*S    EENTRO =        -0.00610611
  eigenvalues    EBANDS =     -3879.91625819
  atomic energy  EATOM  =     20990.72652202
  Solvation  Ediel_sol  =         0.00000000
  ---------------------------------------------------
  free energy    TOTEN  =      -534.34253990 eV

  energy without entropy =     -534.33643379  energy(sigma->0) =     -534.34101337


--------------------------------------------------------------------------------------------------------




----------------------------------------- Iteration    1(  10)  ---------------------------------------


    POTLOK:  cpu time    0.0500: real time    0.0500
    SETDIJ:  cpu time    0.0062: real time    0.0062
    EDDIAG:  cpu time    0.7883: real time    0.7883
  RMM-DIIS:  cpu time    3.5924: real time    3.5924
    ORTHCH:  cpu time    0.2238: real time    0.2238
       DOS:  cpu time    0.0009: real time    0.0009
    CHARGE:  cpu time    0.1515: real time    0.1515
    MIXING:  cpu time    0.0024: real time    0.0024
    --------------------------------------------
      LOOP:  cpu time    4.8172: real time    4.8237

 eigenvalue-minimisations  :  3160
 total energy-change (2. order) : 0.9946004E+01  (-0.2904857E+01)
 number of electron     356.0000010 magnetization 
 augmentation part       49.6785281 magnetization 

 Broyden mixing:
  rms(total) = 0.97877E+00    rms(broyden)= 0.97877E+00
  rms(prec ) = 0.11377E+01
  weight for this iteration     100.00

 eigenvalues of (default mixing * dielectric matrix)
  average eigenvalue GAMMA=   0.6341
  1.5909  0.5533  0.5533  0.3091  0.1639

 Free energy of the ion-electron system (eV)
  ---------------------------------------------------
  alpha Z        PSCENC =       529.78975023
  Ewald energy   TEWEN  =     72637.95261894
  -Hartree energ DENC   =    -91908.07933179
  -exchange      EXHF   =         0.00000000
  -V(xc)+E(xc)   XCENC  =     -3015.43323985
  PAW double counting   =     25879.74987822   -21801.38947330
  entropy T*S    EENTRO =         0.00140865
  eigenvalues    EBANDS =     -3837.71466869
  atomic energy  EATOM  =     20990.72652202
  Solvation  Ediel_sol  =         0.00000000
  ---------------------------------------------------
  free energy    TOTEN  =      -524.39653556 eV

  energy without entropy =     -524.39794421  energy(sigma->0) =     -524.39688772


--------------------------------------------------------------------------------------------------------




----------------------------------------- Iteration    1(  11)  ---------------------------------------


    POTLOK:  cpu time    0.0506: real time    0.0506
    SETDIJ:  cpu time    0.0061: real time    0.0061
    EDDIAG:  cpu time    0.7896: real time    0.7896
  RMM-DIIS:  cpu time    3.7894: real time    3.7894
    ORTHCH:  cpu time    0.2264: real time    0.2264
       DOS:  cpu time    0.0008: real time    0.0008
    CHARGE:  cpu time    0.1504: real time    0.1504
    MIXING:  cpu time    0.0022: real time    0.0022
    --------------------------------------------
      LOOP:  cpu time    5.0170: real time    5.0239

 eigenvalue-minimisations  :  3338
 total energy-change (2. order) : 0.2734808E+00  (-0.1916457E+01)
 number of electron     356.0000011 magnetization 
 augmentation part       50.6438077 magnetization 

 Broyden mixing:
  rms(total) = 0.76421E+00    rms(broyden)= 0.76421E+00
  rms(prec ) = 0.89845E+00
  weight for this iteration     100.00

 eigenvalues of (default mixing * dielectric matrix)
  average eigenvalue GAMMA=   0.6503
  1.6523  0.7311  0.7311  0.3138  0.3138  0.1598

 Free energy of the ion-electron system (eV)
  ---------------------------------------------------
  alpha Z        PSCENC =       529.78975023
  Ewald energy   TEWEN  =     72637.95261894
  -Hartree energ DENC   =    -91935.18492885
  -exchange      EXHF   =         0.00000000
  -V(xc)+E(xc)   XCENC  =     -3013.60667816
  PAW double counting   =     26247.23594002   -22164.96581264
  entropy T*S    EENTRO =        -0.01035224
  eigenvalues    EBANDS =     -3816.06011413
  atomic energy  EATOM  =     20990.72652202
  Solvation  Ediel_sol  =         0.00000000
  ---------------------------------------------------
  free energy    TOTEN  =      -524.12305480 eV

  energy without entropy =     -524.11270256  energy(sigma->0) =     -524.12046674


--------------------------------------------------------------------------------------------------------




----------------------------------------- Iteration    1(  12)  ---------------------------------------


    POTLOK:  cpu time    0.0510: real time    0.0510
    SETDIJ:  cpu time    0.0062: real time    0.0062
    EDDIAG:  cpu time    0.7868: real time    0.7868
  RMM-DIIS:  cpu time    4.0166: real time    4.0166
[...]
 total augmentation occupancy for first ion, spin component:           1
  3.394  -0.775  -0.026   0.158  -0.019   0.004  -0.024   0.003
 -0.775   0.195   0.016  -0.099   0.010  -0.001   0.009  -0.001
 -0.026   0.016   1.215   0.014   0.000  -0.072  -0.001  -0.000
  0.158  -0.099   0.014   0.995   0.014  -0.001  -0.055  -0.001
 -0.019   0.010   0.000   0.014   1.221  -0.000  -0.001  -0.071
  0.004  -0.001  -0.072  -0.001  -0.000   0.004   0.000   0.000
 -0.024   0.009  -0.001  -0.055  -0.001   0.000   0.003   0.000
  0.003  -0.001  -0.000  -0.001  -0.071   0.000   0.000   0.004


------------------------ aborting loop because EDIFF is reached ----------------------------------------


    CHARGE:  cpu time    0.1498: real time    0.1498
    FORLOC:  cpu time    0.0199: real time    0.0199
    FORNL :  cpu time    0.8820: real time    0.8820
    STRESS:  cpu time    2.6784: real time    2.6784
    FORCOR:  cpu time    0.0731: real time    0.0731
    FORHAR:  cpu time    0.0317: real time    0.0317
    MIXING:  cpu time    0.0019: real time    0.0019
    OFIELD:  cpu time    0.0000: real time    0.0000

  FORCE on cell =-STRESS in cart. coord.  units (eV):
  Direction    XX          YY          ZZ          XY          YZ          ZX
  --------------------------------------------------------------------------------------
  Alpha Z   529.78975   529.78975   529.78975
  Ewald   78700.93533 83737.16130-89827.61502  -960.49636   196.76040   333.05818
  Hartree 83258.27651 88123.87044-79378.53391  -757.22797   142.74179   299.08846
  E(xc)   -1501.60317 -1503.96702 -1492.61942    -0.19642    -0.67518    -0.28313
  Local  ************************165465.23855  1714.81669  -335.98860  -631.82468
  n-local   -62.34591   -64.73715   -93.67938     7.59274     0.02898     1.83784
  augment   449.47291   449.68798   445.39599    -1.11328     0.38424     0.21626
  Kinetic  4325.35320  4316.64203  4336.12233    -6.43446     2.39633    -3.45820
  Fock        0.00000     0.00000     0.00000     0.00000     0.00000     0.00000
  -------------------------------------------------------------------------------------
  Total     -34.34901   -27.76526   -15.90111    -3.05905     5.64795    -1.36527
  in kB     -15.10408   -12.20905    -6.99210    -1.34514     2.48354    -0.60034
  external pressure =      -11.44 kB  Pullay stress =        0.00 kB


 VOLUME and BASIS-vectors are now :
 -----------------------------------------------------------------------------
  energy-cutoff  :      600.00
  volume of cell :     3643.60
      direct lattice vectors                 reciprocal lattice vectors
    13.771350861  0.000000000  0.000000000     0.072614518  0.000000000  0.000000000
     0.000000000  9.564481735  0.000000000     0.000000000  0.104553496  0.000000000
     0.000000000  0.000000000 27.662570434     0.000000000  0.000000000  0.036149931

  length of vectors
    13.771350861  9.564481735 27.662570434     0.072614518  0.104553496  0.036149931


 FORCES acting on ions
    electron-ion (+dipol)            ewald-force                    non-local-force                 convergence-correction
 -----------------------------------------------------------------------------------------------
   -.467E+02 -.340E+02 0.379E+03   0.465E+02 0.338E+02 -.378E+03   0.935E-01 0.879E-01 -.804E+00   -.398E-02 -.481E-02 0.130E-01
   -.223E+02 -.321E+02 -.127E+03   0.226E+02 0.322E+02 0.126E+03   -.227E+00 -.100E+00 0.393E+00   0.499E-02 0.367E-02 0.173E-01
   0.186E+02 0.115E+02 -.364E+03   -.187E+02 -.110E+02 0.363E+03   0.128E+00 -.483E+00 0.109E+01   0.862E-02 -.456E-03 0.154E-02
   0.229E+01 0.614E+01 0.194E+03   -.229E+01 -.604E+01 -.194E+03   -.465E-01 -.273E+00 -.826E+00   -.145E-02 -.152E-03 0.270E-01
   -.618E+02 0.517E+01 -.110E+03   0.614E+02 -.472E+01 0.111E+03   0.423E+00 -.448E+00 -.780E+00   -.104E-01 -.164E-02 0.201E-01
   -.466E+02 0.477E+01 0.322E+03   0.459E+02 -.417E+01 -.319E+03   0.657E+00 -.102E+01 -.231E+01   0.738E-02 0.464E-03 0.126E-01
   -.379E+03 -.519E+01 0.452E+03   0.379E+03 0.584E+01 -.453E+03   0.172E+00 -.316E+00 0.727E+00   0.178E-02 0.205E-01 0.134E+00
   -.298E+03 0.339E+02 -.165E+04   0.297E+03 -.328E+02 0.165E+04   0.126E+01 -.104E+01 0.416E+01   0.345E-01 -.253E-01 0.563E-02
   0.102E+03 -.986E+01 0.163E+04   -.102E+03 0.879E+01 -.162E+04   -.559E+00 0.594E+00 -.430E+01   -.110E-01 0.335E-02 0.533E-01
   0.202E+03 0.283E+02 -.398E+03   -.202E+03 -.283E+02 0.400E+03   0.236E+00 0.184E-02 -.132E+01   0.150E-01 0.694E-02 0.789E-01
   -.537E+02 0.138E+03 0.170E+04   0.545E+02 -.138E+03 -.169E+04   -.498E+00 -.417E+00 -.277E+01   -.207E-01 0.258E-01 0.599E-01
   0.109E+03 0.123E+03 -.410E+03   -.108E+03 -.123E+03 0.411E+03   -.739E+00 0.121E+00 -.277E+00   0.345E-01 -.168E-01 0.904E-01
   -.417E+03 -.224E+01 0.717E+03   0.418E+03 0.106E+01 -.716E+03   -.737E+00 0.146E+01 -.162E+01   0.706E-02 -.203E-01 0.140E+00
   -.199E+03 -.319E+02 -.150E+04   0.200E+03 0.315E+02 0.150E+04   -.119E+01 0.412E+00 0.320E+01   0.257E-01 0.269E-01 0.637E-02
   0.298E+03 -.117E+03 0.153E+04   -.298E+03 0.117E+03 -.152E+04   0.276E+00 -.384E+00 -.423E+01   -.103E-01 -.692E-02 0.464E-01
   0.358E+03 -.849E+02 -.389E+03   -.358E+03 0.843E+02 0.389E+03   0.820E-01 0.516E+00 -.731E+00   0.784E-02 0.623E-02 0.688E-01
   -.124E+02 0.810E+00 0.178E+03   0.119E+02 -.734E+00 -.179E+03   0.531E+00 -.235E+00 0.292E-01   0.388E-02 -.888E-03 0.441E-01
   -.617E+01 -.275E+02 -.657E+03   0.570E+01 0.274E+02 0.654E+03   0.457E+00 0.754E-01 0.239E+01   0.534E-02 0.135E-02 0.679E-02
   0.171E+03 -.832E+01 0.160E+03   -.170E+03 0.815E+01 -.161E+03   -.117E+01 0.553E+00 0.733E+00   -.133E-03 -.200E-02 0.293E-01
   0.179E+03 0.885E+02 -.510E+03   -.178E+03 -.877E+02 0.507E+03   -.545E+00 -.708E+00 0.296E+01   -.302E-02 -.114E-02 0.157E-02
   0.132E+03 -.683E+02 -.965E+02   -.132E+03 0.682E+02 0.961E+02   -.104E+00 0.468E-01 0.351E+00   -.155E-02 -.429E-02 0.172E-01
   0.117E+03 -.551E+02 0.467E+03   -.116E+03 0.552E+02 -.464E+03   -.823E+00 -.252E+00 -.269E+01   -.259E-02 -.573E-03 0.117E-01
   -.108E+03 0.667E+02 -.147E+03   0.108E+03 -.662E+02 0.146E+03   0.133E+00 -.490E+00 0.520E+00   0.945E-02 0.893E-03 0.300E-01
   -.100E+03 0.599E+02 0.522E+03   0.996E+02 -.594E+02 -.518E+03   0.457E+00 -.463E+00 -.277E+01   -.131E-02 -.959E-03 0.141E-01
   0.825E+02 -.138E+02 0.157E+03   -.834E+02 0.132E+02 -.157E+03   0.732E+00 0.728E+00 -.335E+00   0.368E-03 -.301E-02 0.269E-01
   -.453E+02 -.593E+01 -.467E+03   0.451E+02 0.616E+01 0.466E+03   0.258E+00 -.222E+00 0.121E+01   0.865E-02 -.149E-03 0.352E-02
   -.128E+03 -.435E+01 -.443E+03   0.127E+03 0.436E+01 0.441E+03   0.330E+00 -.130E-01 0.228E+01   0.472E-04 -.291E-04 0.965E-03
   -.165E+03 0.744E+01 0.187E+03   0.165E+03 -.717E+01 -.188E+03   0.362E+00 -.403E+00 0.276E+00   0.486E-02 0.578E-03 0.420E-01
   -.151E+03 -.549E+01 0.478E+03   0.150E+03 0.545E+01 -.475E+03   0.698E+00 -.742E-01 -.258E+01   0.676E-02 0.540E-02 0.200E-01
   -.201E+03 -.346E+01 -.159E+03   0.200E+03 0.370E+01 0.158E+03   0.735E+00 -.238E+00 0.385E+00   -.339E-02 -.685E-02 0.265E-01
   0.833E+02 0.226E+01 0.171E+03   -.835E+02 -.179E+01 -.172E+03   -.618E-01 -.160E+00 0.238E-01   0.515E-03 0.330E-02 0.293E-01
   0.117E+03 0.326E+02 -.529E+03   -.117E+03 -.327E+02 0.527E+03   -.253E+00 0.110E+00 0.226E+01   0.950E-02 -.130E-02 0.520E-02
   0.587E+02 -.170E+02 -.155E+03   -.592E+02 0.172E+02 0.155E+03   0.450E+00 -.210E+00 0.439E+00   0.633E-02 -.253E-02 0.211E-01
   0.360E+02 -.726E+00 0.501E+03   -.366E+02 0.656E+00 -.498E+03   0.616E+00 0.364E-01 -.246E+01   -.663E-02 -.120E-02 0.134E-01
   0.130E+03 0.709E+01 0.159E+03   -.129E+03 -.735E+01 -.158E+03   -.748E+00 0.640E+00 -.367E+00   -.956E-03 -.950E-03 0.270E-01
   0.113E+03 0.619E+02 -.494E+03   -.112E+03 -.619E+02 0.491E+03   -.600E+00 0.498E-01 0.286E+01   0.746E-02 0.515E-02 0.650E-02
   0.127E+03 0.998E+01 0.180E+03   -.127E+03 -.955E+01 -.180E+03   0.213E-02 -.431E+00 -.427E+00   -.192E-02 0.167E-02 0.267E-01
   0.554E+02 -.156E+01 -.415E+03   -.560E+02 0.197E+01 0.413E+03   0.615E+00 -.411E+00 0.252E+01   -.360E-02 0.172E-03 0.667E-02
   0.126E+03 0.389E+02 0.425E+03   -.126E+03 -.387E+02 -.422E+03   0.177E+00 -.460E+00 -.274E+01   0.499E-03 0.280E-03 0.159E-01
   0.134E+03 0.471E+02 -.141E+03   -.134E+03 -.468E+02 0.142E+03   -.747E-01 -.261E+00 -.926E+00   -.287E-02 0.628E-02 0.152E-01
   -.992E+02 -.118E+01 0.486E+03   0.995E+02 0.117E+01 -.482E+03   -.492E+00 0.306E-01 -.313E+01   0.506E-02 -.359E-02 0.160E-01
   -.155E+03 -.304E+00 -.126E+03   0.154E+03 0.201E+00 0.127E+03   0.621E+00 0.978E-01 -.595E+00   0.580E-03 0.538E-02 0.266E-01
   0.130E+03 0.288E+02 0.453E+03   -.130E+03 -.290E+02 -.450E+03   -.247E+00 0.324E+00 -.249E+01   -.304E-02 0.162E-02 0.161E-01
   0.138E+03 0.201E+02 -.178E+03   -.137E+03 -.196E+02 0.178E+03   -.691E+00 -.486E+00 -.673E-01   0.502E-02 -.227E-02 0.153E-01
   0.162E+02 -.112E+03 -.434E+03   -.167E+02 0.110E+03 0.431E+03   0.480E+00 0.182E+01 0.247E+01   0.683E-02 -.289E-02 0.121E-02
   0.129E+03 -.188E+01 0.196E+03   -.129E+03 0.168E+01 -.196E+03   0.290E+00 0.721E-01 0.146E+00   -.204E-02 0.130E-02 0.254E-01
   0.355E+02 0.139E+01 0.137E+03   -.354E+02 -.132E+01 -.138E+03   -.146E-01 -.197E+00 0.389E+00   -.990E-03 -.311E-02 0.286E-01
   0.290E+02 0.185E+02 -.425E+03   -.287E+02 -.184E+02 0.421E+03   -.272E+00 -.141E+00 0.328E+01   -.118E-01 0.691E-02 0.238E-02
   -.416E+02 -.279E+00 0.439E+03   0.419E+02 0.647E+00 -.436E+03   -.607E-01 -.266E+00 -.280E+01   0.442E-02 -.867E-03 0.151E-01
   -.692E+02 -.505E+01 -.132E+03   0.690E+02 0.458E+01 0.132E+03   0.213E+00 0.460E+00 -.334E-01   -.764E-02 0.257E-02 0.232E-01
   0.508E+02 -.313E+01 0.418E+03   -.508E+02 0.251E+01 -.414E+03   -.137E-01 0.155E+00 -.312E+01   0.250E-02 0.122E-02 0.144E-01
   0.615E+02 0.555E+01 -.141E+03   -.610E+02 -.582E+01 0.142E+03   -.434E+00 0.265E+00 -.637E+00   -.843E-02 0.319E-03 0.188E-01
   -.723E+02 -.238E+01 0.171E+03   0.723E+02 0.260E+01 -.171E+03   0.129E+00 0.201E+00 0.163E+00   0.166E-02 0.102E-02 0.340E-01
   -.584E+02 -.347E+01 -.414E+03   0.590E+02 0.377E+01 0.411E+03   -.549E+00 -.297E+00 0.300E+01   -.156E-01 -.372E-02 0.243E-02
   0.402E+02 0.133E+01 0.434E+03   -.395E+02 -.116E+01 -.430E+03   -.849E+00 -.300E+00 -.322E+01   0.520E-03 -.961E-03 0.143E-01
   0.297E+02 -.588E+01 -.113E+03   -.292E+02 0.608E+01 0.114E+03   -.480E+00 -.203E+00 -.377E+00   -.932E-02 -.245E-02 0.171E-01
   -.968E+02 0.121E-01 0.143E+03   0.964E+02 -.173E+00 -.143E+03   0.491E+00 0.228E+00 0.319E-01   -.224E-02 -.913E-03 0.346E-01
   -.846E+02 0.166E+01 -.447E+03   0.836E+02 -.205E+01 0.443E+03   0.992E+00 0.378E+00 0.368E+01   -.811E-02 0.441E-02 -.910E-03
   0.910E+02 -.391E+02 -.358E+03   -.890E+02 0.383E+02 0.357E+03   -.202E+01 0.791E+00 0.117E+01   -.129E-01 -.606E-02 0.372E-02
   0.497E+02 -.553E+01 0.174E+03   -.491E+02 0.527E+01 -.175E+03   -.618E+00 0.611E+00 0.495E-01   -.176E-02 0.239E-02 0.256E-01
   -.141E+03 -.431E+02 0.517E+03   0.140E+03 0.424E+02 -.514E+03   0.829E+00 0.672E-01 -.325E+01   -.229E-02 0.692E-03 0.161E-01
   -.145E+03 -.412E+02 -.126E+03   0.145E+03 0.407E+02 0.127E+03   0.193E+00 0.461E+00 -.745E+00   0.580E-02 -.877E-03 0.271E-01
   -.159E+03 0.418E+01 0.172E+03   0.158E+03 -.422E+01 -.173E+03   0.630E+00 0.426E+00 0.171E+00   -.193E-02 -.429E-03 0.403E-01
   -.133E+03 0.922E+01 -.458E+03   0.132E+03 -.875E+01 0.455E+03   0.506E+00 -.465E+00 0.314E+01   0.148E-02 0.725E-04 0.890E-03
   0.137E+03 -.822E+02 -.787E+03   -.137E+03 0.856E+02 0.804E+03   0.294E+00 -.337E+01 -.169E+02   -.913E-02 -.604E-02 -.326E-02
   0.736E+01 0.126E+02 -.889E+03   -.632E+01 -.134E+02 0.908E+03   -.106E+01 0.801E+00 -.192E+02   0.187E-01 -.638E-02 -.150E-01
 -----------------------------------------------------------------------------------------------
   0.546E+00 0.261E+01 0.438E+02   -.142E-12 0.817E-13 0.136E-11   -.630E+00 -.261E+01 -.454E+02   0.806E-01 0.403E-02 0.162E+01
 
 
 POSITION                                       TOTAL-FORCE (eV/Angst)
 -----------------------------------------------------------------------------------
      8.57631      8.29685     10.39845        -0.086968     -0.146048      0.015727
      8.61326      3.75849     15.08597         0.000005      0.001035      0.001395
      8.53246      6.04867     17.26539        -0.008587     -0.002051     -0.000907
      8.51616      0.79995     12.43874        -0.047078     -0.176086     -0.284217
     13.45350      6.10341     15.24814        -0.002242     -0.001622      0.000109
     13.49094      1.15316     10.44749        -0.024502     -0.419945     -0.056761
     10.03344      3.28428     12.67411        -0.055823      0.353416     -0.739362
      9.98115      8.51476     17.16554        -0.006733      0.007094      0.000132
      7.12524      5.81577     10.15765        -0.144566     -0.470751      0.904515
      7.07541      1.24458     14.94514         0.002321      0.001222     -0.003797
      8.51222      3.28036     10.20450         0.296245      0.073430      0.735500
      8.52917      8.33286     14.87744        -0.000122      0.002872     -0.005335
     10.22263      8.06723     12.77991         0.215136      0.261562     -0.522052
     10.23938      3.71582     17.37272        -0.004766      0.002604      0.002074
      5.42664      8.10481     10.20639         0.273407      0.060478      0.935611
      5.40502      3.52519     15.05836        -0.003794      0.000404      0.002806
      8.52843      5.75423     12.65640         0.047355     -0.160225     -0.116605
      8.57628      1.32851     17.25222         0.000532      0.003457     -0.001055
      3.84829      7.97317     12.47259        -0.379202      0.381877     -0.388970
      3.85195      3.68863     17.38934         0.000089     -0.004811     -0.000701
      3.87743      5.66005     14.86807        -0.000998     -0.002245      0.001025
      3.90063      0.73891     10.00000         0.505875     -0.155900      0.371648
     10.16569      6.07997     14.92824         0.002310     -0.001466     -0.000931
     10.19112      1.10470     10.13736        -0.252369      0.047366      0.363182
      6.82945      7.99424     12.66670        -0.118501      0.197916     -0.261344
      6.97654      3.60381     17.30789        -0.002785      0.001530      0.007444
     11.56771      6.15150     17.26154         0.000598     -0.001478      0.004275
     11.66772      1.05372     12.57547        -0.042805     -0.139205     -0.629512
     11.73919      3.33868     10.41199        -0.253329     -0.117381      0.551554
     11.74831      8.31263     15.24997        -0.000939      0.000889      0.000090
      7.18522      3.24644     12.75390        -0.243233      0.311718     -0.407724
      7.19325      8.53892     17.24330         0.000224      0.002434     -0.000271
      6.85483      5.93446     14.95520         0.001245     -0.000336     -0.000058
      6.87795      0.97560     10.08695        -0.050860     -0.035499      0.187914
      5.51084      5.55012     12.48419        -0.041598      0.383439     -0.288099
      5.49744      1.19363     17.15023        -0.001089      0.000454     -0.001003
      3.51249      3.50019     12.83519         0.014557     -0.000497     -0.353859
      3.20375      8.84994     17.27435        -0.002559     -0.001451      0.001964
      3.46798      5.87237     10.40868         0.091359     -0.227233     -0.056624
      3.45298      1.33099     15.19240        -0.000972     -0.000859      0.001771
     11.91771      8.21633     10.24534        -0.161444      0.021227      0.645281
     11.88732      3.62792     15.03161        -0.000823     -0.000244      0.001206
      5.24135      3.36543     10.32679         0.129973      0.056623      0.159082
      5.14690      8.30688     15.21603         0.001009     -0.000074     -0.000584
      5.36221      6.13050     17.55808         0.001905      0.004215     -0.000874
      5.28930      0.99064     12.60849         0.090689     -0.119789     -0.422540
      1.60538      5.84491     12.85122         0.151484     -0.133109     -0.353514
      1.58033      1.65073     17.51819        -0.003630      0.001105      0.001399
     13.72038      5.67134     10.18293         0.191118      0.101184      0.648199
     13.68965      1.10639     15.08626        -0.000669     -0.004276     -0.000570
      1.63456      8.33987     10.36453        -0.027916     -0.471223      0.169629
      1.66686      3.76577     15.29986        -0.000461      0.001677     -0.000053
     13.76831      3.16119     12.53308         0.130565      0.423373     -0.280426
     13.72710      8.47898     17.30492        -0.000505      0.000645      0.004238
      1.99440      3.17314     10.17666        -0.130378     -0.136000      0.647404
      1.85046      8.14530     14.94630        -0.002332     -0.001312     -0.000423
     13.48051      8.37930     12.86886         0.099929      0.066365     -0.458703
     13.24316      3.99544     17.69502        -0.003386     -0.001699      0.006493
      1.85317      6.06376     17.27539        -0.008188     -0.000277     -0.001281
      2.02729      0.87737     12.46815        -0.010134      0.354695     -0.324433
     10.07171      5.79402     10.14663         0.119939     -0.582155      0.163943
     10.10960      1.21529     14.88772        -0.002514      0.000599      0.001487
     11.97051      5.66181     12.67660        -0.238987      0.388228     -0.578503
     11.76897      1.32725     17.48256        -0.001661     -0.001468      0.000378
      3.44912      5.47342     18.38564         0.001618      0.001972      0.003970
      5.59560      4.14859     18.46854        -0.000040     -0.000393     -0.000349
 -----------------------------------------------------------------------------------
    total drift:                               -0.003018      0.001277     -0.021628


--------------------------------------------------------------------------------------------------------



  FREE ENERGIE OF THE ION-ELECTRON SYSTEM (eV)
  ---------------------------------------------------
  free  energy   TOTEN  =      -524.42639645 eV

  energy  without entropy=     -524.42887884  energy(sigma->0) =     -524.42701705
 
 d Force =-0.2026695E-05[-0.141E-04, 0.100E-04]  d Energy =-0.8203422E-04 0.800E-04
 d Force =-0.4645252E+00[-0.465E+00,-0.465E+00]  d Ewald  =-0.4645249E+00-0.333E-06


--------------------------------------------------------------------------------------------------------


    POTLOK:  cpu time    0.0604: real time    0.0604


--------------------------------------------------------------------------------------------------------




--------------------------------------------------------------------------------------------------------


  
 reached required accuracy - stopping structural energy minimisation
     LOOP+:  cpu time   20.2635: real time   20.2765
    4ORBIT:  cpu time    0.0000: real time    0.0000

 total amount of memory used by VASP on root node    71840. kBytes
========================================================================

   base      :      30000. kBytes
   nonlr-proj:       7022. kBytes
   fftplans  :       3890. kBytes
   grid      :       8747. kBytes
   one-center:         46. kBytes
   wavefun   :      22135. kBytes
 
  
  
 General timing and accounting informations for this job:
 ========================================================
  
                  Total CPU time used (sec):     1752.310
                            User time (sec):     1737.359
                          System time (sec):       14.951
                         Elapsed time (sec):     1757.045
  
                   Maximum memory used (kb):      153584.
                   Average memory used (kb):           0.
  
                          Minor page faults:        60465
                          Major page faults:            0
                 Voluntary context switches:        20319
