 vasp.5.4.1 05Feb16 (build Mar 19 2020 08:54:17) complex                        
  
 executed on           IFC91_ompi date 2021.11.11  22:50:35
 running on   96 total cores
 distrk:  each k-point on   96 cores,    1 groups
 distr:  one band on NCORES_PER_BAND=  24 cores,    4 groups


--------------------------------------------------------------------------------------------------------


 INCAR:
 POTCAR:    PAW_PBE Al 04Jan2001                  
 POTCAR:    PAW_PBE Nb_sv 25May2007               
 POTCAR:    PAW_PBE Ta 17Jan2003                  
 POTCAR:    PAW_PBE Ti 08Apr2002                  
 POTCAR:   PAW_PBE Zr 08Apr2002                   
 POTCAR:    PAW_PBE O 08Apr2002                   

 ----------------------------------------------------------------------------- 
|                                                                             |
|           W    W    AA    RRRRR   N    N  II  N    N   GGGG   !!!           |
|           W    W   A  A   R    R  NN   N  II  NN   N  G    G  !!!           |
|           W    W  A    A  R    R  N N  N  II  N N  N  G       !!!           |
|           W WW W  AAAAAA  RRRRR   N  N N  II  N  N N  G  GGG   !            |
|           WW  WW  A    A  R   R   N   NN  II  N   NN  G    G                |
|           W    W  A    A  R    R  N    N  II  N    N   GGGG   !!!           |
|                                                                             |
|      For optimal performance we recommend to set                            |
|        NCORE= 4 - approx SQRT( number of cores)                             |
|      NCORE specifies how many cores store one orbital (NPAR=cpu/NCORE).     |
|      This setting can  greatly improve the performance of VASP for DFT.     |
|      The default, NPAR=number of cores might be grossly inefficient         |
|      on modern multi-core architectures or massively parallel machines.     |
|      Do your own testing !!!!                                               |
|      Unfortunately you need to use the default for GW and RPA calculations. |
|      (for HF NCORE is supported but not extensively tested yet)             |
|                                                                             |
 ----------------------------------------------------------------------------- 

 POTCAR:    PAW_PBE Al 04Jan2001                  
   VRHFIN =Al: s2p1                                                             
   LEXCH  = PE                                                                  
   EATOM  =    53.5387 eV,    3.9350 Ry                                         
                                                                                
   TITEL  = PAW_PBE Al 04Jan2001                                                
   LULTRA =        F    use ultrasoft PP ?                                      
   IUNSCR =        1    unscreen: 0-lin 1-nonlin 2-no                           
   RPACOR =    1.500    partial core radius                                     
   POMASS =   26.981; ZVAL   =    3.000    mass and valenz                      
   RCORE  =    1.900    outmost cutoff radius                                   
   RWIGS  =    2.650; RWIGS  =    1.402    wigner-seitz radius (au A)           
   ENMAX  =  240.300; ENMIN  =  180.225 eV                                      
   ICORE  =        2    local potential                                         
   LCOR   =        T    correct aug charges                                     
   LPAW   =        T    paw PP                                                  
   EAUG   =  291.052                                                            
   DEXC   =    0.000                                                            
   RMAX   =    1.939    core radius for proj-oper                               
   RAUG   =    1.300    factor for augmentation sphere                          
   RDEP   =    1.966    radius for radial grids                                 
   RDEPT  =    1.856    core radius for aug-charge                              
                                                                                
   Atomic configuration                                                         
    6 entries                                                                   
     n  l   j            E        occ.                                          
     1  0  0.50     -1511.1048   2.0000                                         
     2  0  0.50      -108.1629   2.0000                                         
     2  1  1.50       -69.6402   6.0000                                         
     3  0  0.50        -7.7528   2.0000                                         
     3  1  1.50        -2.7121   1.0000                                         
     3  2  2.50        -2.7212   0.0000                                         
   Description                                                                  
     l       E           TYP  RCUT    TYP  RCUT                                 
     0     -7.7528455     23  1.900                                             
     0     -3.3096929     23  1.900                                             
     1     -2.7120682     23  1.900                                             
     1     13.6058260     23  1.900                                             
     2     -2.7211652      7  1.900                                             
  local pseudopotential read in
  partial core-charges read in
  partial kinetic energy density read in
  atomic valenz-charges read in
  non local Contribution for L=           0  read in
    real space projection operators read in
  non local Contribution for L=           0  read in
    real space projection operators read in
  non local Contribution for L=           1  read in
    real space projection operators read in
  non local Contribution for L=           1  read in
    real space projection operators read in
    PAW grid and wavefunctions read in
 
   number of l-projection  operators is LMAX  =           4
   number of lm-projection operators is LMMAX =           8
 
 POTCAR:    PAW_PBE Nb_sv 25May2007               
   VRHFIN =Nb: 4p5s4d                                                           
   LEXCH  = PE                                                                  
   EATOM  =  1555.1913 eV,  114.3033 Ry                                         
                                                                                
   TITEL  = PAW_PBE Nb_sv 25May2007                                             
   LULTRA =        F    use ultrasoft PP ?                                      
   IUNSCR =        1    unscreen: 0-lin 1-nonlin 2-no                           
   RPACOR =    1.800    partial core radius                                     
   POMASS =   92.910; ZVAL   =   13.000    mass and valenz                      
   RCORE  =    2.400    outmost cutoff radius                                   
   RWIGS  =    2.400; RWIGS  =    1.270    wigner-seitz radius (au A)           
   ENMAX  =  293.235; ENMIN  =  219.927 eV                                      
   ICORE  =        3    local potential                                         
   LCOR   =        T    correct aug charges                                     
   LPAW   =        T    paw PP                                                  
   EAUG   =  455.659                                                            
   DEXC   =    0.000                                                            
   RMAX   =    2.456    core radius for proj-oper                               
   RAUG   =    1.300    factor for augmentation sphere                          
   RDEP   =    2.451    radius for radial grids                                 
   RDEPT  =    1.956    core radius for aug-charge                              
                                                                                
   Atomic configuration                                                         
   11 entries                                                                   
     n  l   j            E        occ.                                          
     1  0  0.50    -18805.2457   2.0000                                         
     2  0  0.50     -2630.2869   2.0000                                         
     2  1  1.50     -2348.4046   6.0000                                         
     3  0  0.50      -438.8757   2.0000                                         
     3  1  1.50      -346.7588   6.0000                                         
     3  2  2.50      -196.2560  10.0000                                         
     4  0  0.50       -58.3859   2.0000                                         
     5  0  0.50        -3.9816   1.0000                                         
     4  1  1.50       -34.5141   6.0000                                         
     4  2  2.50        -3.0408   4.0000                                         
     4  3  2.50        -1.3606   0.0000                                         
   Description                                                                  
     l       E           TYP  RCUT    TYP  RCUT                                 
     0    -58.3859094     23  2.200                                             
     0     -3.9816262     23  2.200                                             
     1    -34.5140738     23  2.200                                             
     1     13.6058260     23  2.200                                             
     2     -3.0408010     23  2.200                                             
     2     -0.1283038     23  2.200                                             
     3     -1.3605826     23  2.400                                             
  local pseudopotential read in
  partial core-charges read in
  partial kinetic energy density read in
  atomic valenz-charges read in
  non local Contribution for L=           0  read in
    real space projection operators read in
  non local Contribution for L=           0  read in
    real space projection operators read in
  non local Contribution for L=           1  read in
    real space projection operators read in
  non local Contribution for L=           1  read in
    real space projection operators read in
  non local Contribution for L=           2  read in
    real space projection operators read in
  non local Contribution for L=           2  read in
    real space projection operators read in
    PAW grid and wavefunctions read in
 
   number of l-projection  operators is LMAX  =           6
   number of lm-projection operators is LMMAX =          18
 
 POTCAR:    PAW_PBE Ta 17Jan2003                  
   VRHFIN =Ta:  6s5d                                                            
   LEXCH  = PE                                                                  
   EATOM  =   130.6506 eV,    9.6025 Ry                                         
                                                                                
   TITEL  = PAW_PBE Ta 17Jan2003                                                
   LULTRA =        F    use ultrasoft PP ?                                      
   IUNSCR =        1    unscreen: 0-lin 1-nonlin 2-no                           
   RPACOR =    2.330    partial core radius                                     
   POMASS =  180.948; ZVAL   =    5.000    mass and valenz                      
   RCORE  =    2.900    outmost cutoff radius                                   
   RWIGS  =    2.840; RWIGS  =    1.503    wigner-seitz radius (au A)           
   ENMAX  =  223.667; ENMIN  =  167.750 eV                                      
   RCLOC  =    2.205    cutoff for local pot                                    
   LCOR   =        T    correct aug charges                                     
   LPAW   =        T    paw PP                                                  
   EAUG   =  332.075                                                            
   DEXC   =    0.000                                                            
   RMAX   =    2.970    core radius for proj-oper                               
   RAUG   =    1.300    factor for augmentation sphere                          
   RDEP   =    3.060    radius for radial grids                                 
   RDEPT  =    2.354    core radius for aug-charge                              
                                                                                
   Atomic configuration                                                         
   16 entries                                                                   
     n  l   j            E        occ.                                          
     1  0  0.50    -67341.2807   2.0000                                         
     2  0  0.50    -11566.9376   2.0000                                         
     2  1  1.50    -10134.1182   6.0000                                         
     3  0  0.50     -2648.5620   2.0000                                         
     3  1  1.50     -2222.6012   6.0000                                         
     3  2  2.50     -1726.3120  10.0000                                         
     4  0  0.50      -538.6961   2.0000                                         
     4  1  1.50      -399.0129   6.0000                                         
     4  2  2.50      -220.3959  10.0000                                         
     4  3  3.50       -23.0374  14.0000                                         
     5  0  0.50       -71.2901   2.0000                                         
     5  1  1.50       -37.8225   6.0000                                         
     5  2  2.50        -2.6455   4.0000                                         
     6  0  0.50        -4.9623   1.0000                                         
     6  1  1.50        -1.3606   0.0000                                         
     5  3  2.50        -1.3606   0.0000                                         
   Description                                                                  
     l       E           TYP  RCUT    TYP  RCUT                                 
     2     -2.6455043     23  2.500                                             
     2     -0.6258895     23  2.500                                             
     0     -4.9622780     23  2.500                                             
     0      4.7531321     23  2.500                                             
     1     -1.3605826     23  2.900                                             
     1     27.2116520     23  2.900                                             
  local pseudopotential read in
  partial core-charges read in
  partial kinetic energy density read in
  atomic valenz-charges read in
  non local Contribution for L=           2  read in
    real space projection operators read in
  non local Contribution for L=           2  read in
    real space projection operators read in
  non local Contribution for L=           0  read in
    real space projection operators read in
  non local Contribution for L=           0  read in
    real space projection operators read in
  non local Contribution for L=           1  read in
    real space projection operators read in
  non local Contribution for L=           1  read in
    real space projection operators read in
    PAW grid and wavefunctions read in
 
   number of l-projection  operators is LMAX  =           6
   number of lm-projection operators is LMMAX =          18
 
 POTCAR:    PAW_PBE Ti 08Apr2002                  
   VRHFIN =Ti: d3 s1                                                            
   LEXCH  = PE                                                                  
   EATOM  =    94.7928 eV,    6.9671 Ry                                         
                                                                                
   TITEL  = PAW_PBE Ti 08Apr2002                                                
   LULTRA =        F    use ultrasoft PP ?                                      
   IUNSCR =        1    unscreen: 0-lin 1-nonlin 2-no                           
   RPACOR =    2.200    partial core radius                                     
   POMASS =   47.880; ZVAL   =    4.000    mass and valenz                      
   RCORE  =    2.800    outmost cutoff radius                                   
   RWIGS  =    2.500; RWIGS  =    1.323    wigner-seitz radius (au A)           
   ENMAX  =  178.330; ENMIN  =  133.747 eV                                      
   RCLOC  =    2.215    cutoff for local pot                                    
   LCOR   =        T    correct aug charges                                     
   LPAW   =        T    paw PP                                                  
   EAUG   =  328.883                                                            
   DEXC   =    0.000                                                            
   RMAX   =    2.868    core radius for proj-oper                               
   RAUG   =    1.300    factor for augmentation sphere                          
   RDEP   =    2.885    radius for radial grids                                 
   RDEPT  =    2.320    core radius for aug-charge                              
                                                                                
   Atomic configuration                                                         
    9 entries                                                                   
     n  l   j            E        occ.                                          
     1  0  0.50     -4865.3608   2.0000                                         
     2  0  0.50      -533.1367   2.0000                                         
     2  1  1.50      -440.5031   6.0000                                         
     3  0  0.50       -59.3186   2.0000                                         
     3  1  1.50       -35.7012   6.0000                                         
     3  2  2.50        -1.9157   3.0000                                         
     4  0  0.50        -3.7291   1.0000                                         
     4  1  1.50        -4.0817   0.0000                                         
     4  3  2.50        -1.3606   0.0000                                         
   Description                                                                  
     l       E           TYP  RCUT    TYP  RCUT                                 
     2     -1.9156924     23  2.800                                             
     2     -0.4062961     23  2.800                                             
     0     -3.7290832     23  2.800                                             
     0     20.4087390     23  2.800                                             
     1     -5.4423304     23  2.800                                             
  local pseudopotential read in
  partial core-charges read in
  partial kinetic energy density read in
  atomic valenz-charges read in
  non local Contribution for L=           2  read in
    real space projection operators read in
  non local Contribution for L=           2  read in
    real space projection operators read in
  non local Contribution for L=           0  read in
    real space projection operators read in
  non local Contribution for L=           0  read in
    real space projection operators read in
  non local Contribution for L=           1  read in
    real space projection operators read in
    PAW grid and wavefunctions read in
 
   number of l-projection  operators is LMAX  =           5
   number of lm-projection operators is LMMAX =          15
 
 POTCAR:   PAW_PBE Zr 08Apr2002                   
   VRHFIN =Zr: 5s4d5p                                                           
   LEXCH  = PE                                                                  
   EATOM  =    77.8472 eV,    5.7216 Ry                                         
                                                                                
   TITEL  = PAW_PBE Zr 08Apr2002                                                
   LULTRA =        F    use ultrasoft PP ?                                      
   IUNSCR =        1    unscreen: 0-lin 1-nonlin 2-no                           
   RPACOR =    2.200    partial core radius                                     
   POMASS =   91.224; ZVAL   =    4.000    mass and valenz                      
   RCORE  =    3.000    outmost cutoff radius                                   
   RWIGS  =    3.070; RWIGS  =    1.625    wigner-seitz radius (au A)           
   ENMAX  =  154.632; ENMIN  =  115.974 eV                                      
   RCLOC  =    2.213    cutoff for local pot                                    
   LCOR   =        T    correct aug charges                                     
   LPAW   =        T    paw PP                                                  
   EAUG   =  243.217                                                            
   DEXC   =    -.082                                                            
   RMAX   =    3.708    core radius for proj-oper                               
   RAUG   =    1.300    factor for augmentation sphere                          
   RDEP   =    3.146    radius for radial grids                                 
   QCUT   =   -3.371; QGAM   =    6.742    optimization parameters              
                                                                                
   Description                                                                  
     l     E      TYP  RCUT    TYP  RCUT                                        
     2   .000     23  3.000                                                     
     2   .000     23  3.000                                                     
     0   .000     23  3.000                                                     
     0  2.000     23  3.000                                                     
     1  -.400     23  3.000                                                     
     3   .000      7   .000                                                     
  local pseudopotential read in
  partial core-charges read in
  atomic valenz-charges read in
  non local Contribution for L=           2  read in
    real space projection operators read in
  non local Contribution for L=           2  read in
    real space projection operators read in
  non local Contribution for L=           0  read in
    real space projection operators read in
  non local Contribution for L=           0  read in
    real space projection operators read in
  non local Contribution for L=           1  read in
    real space projection operators read in
    PAW grid and wavefunctions read in
 
   number of l-projection  operators is LMAX  =           5
   number of lm-projection operators is LMMAX =          15
 
 POTCAR:    PAW_PBE O 08Apr2002                   
   VRHFIN =O: s2p4                                                              
   LEXCH  = PE                                                                  
   EATOM  =   432.3788 eV,   31.7789 Ry                                         
                                                                                
   TITEL  = PAW_PBE O 08Apr2002                                                 
   LULTRA =        F    use ultrasoft PP ?                                      
   IUNSCR =        1    unscreen: 0-lin 1-nonlin 2-no                           
   RPACOR =    1.200    partial core radius                                     
   POMASS =   16.000; ZVAL   =    6.000    mass and valenz                      
   RCORE  =    1.520    outmost cutoff radius                                   
   RWIGS  =    1.550; RWIGS  =    0.820    wigner-seitz radius (au A)           
   ENMAX  =  400.000; ENMIN  =  300.000 eV                                      
   ICORE  =        2    local potential                                         
   LCOR   =        T    correct aug charges                                     
   LPAW   =        T    paw PP                                                  
   EAUG   =  605.392                                                            
   DEXC   =    0.000                                                            
   RMAX   =    1.553    core radius for proj-oper                               
   RAUG   =    1.300    factor for augmentation sphere                          
   RDEP   =    1.550    radius for radial grids                                 
   RDEPT  =    1.329    core radius for aug-charge                              
                                                                                
   Atomic configuration                                                         
    4 entries                                                                   
     n  l   j            E        occ.                                          
     1  0  0.50      -514.6923   2.0000                                         
     2  0  0.50       -23.9615   2.0000                                         
     2  1  0.50        -9.0305   4.0000                                         
     3  2  1.50        -9.5241   0.0000                                         
   Description                                                                  
     l       E           TYP  RCUT    TYP  RCUT                                 
     0    -23.9615318     23  1.200                                             
     0     -9.5240782     23  1.200                                             
     1     -9.0304911     23  1.520                                             
     1      8.1634956     23  1.520                                             
     2     -9.5240782      7  1.500                                             
  local pseudopotential read in
  partial core-charges read in
  partial kinetic energy density read in
  kinetic energy density of atom read in
  atomic valenz-charges read in
  non local Contribution for L=           0  read in
    real space projection operators read in
  non local Contribution for L=           0  read in
    real space projection operators read in
  non local Contribution for L=           1  read in
    real space projection operators read in
  non local Contribution for L=           1  read in
    real space projection operators read in
    PAW grid and wavefunctions read in
 
   number of l-projection  operators is LMAX  =           4
   number of lm-projection operators is LMMAX =           8
 
 Optimization of the real space projectors (new method)

 maximal supplied QI-value         = 19.84
 optimisation between [QCUT,QGAM] = [ 12.50, 25.00] = [ 43.76,175.03] Ry 
 Optimized for a Real-space Cutoff    1.06 Angstroem

   l    n(q)    QCUT    max X(q) W(low)/X(q) W(high)/X(q)  e(spline) 
   0      8    12.501   176.870    0.16E-03    0.12E-03    0.66E-07
   0      8    12.501   105.762    0.15E-03    0.12E-03    0.64E-07
   1      7    12.501    55.370    0.36E-03    0.38E-03    0.67E-07
   1      7    12.501    20.208    0.32E-03    0.35E-03    0.64E-07
 Optimization of the real space projectors (new method)

 maximal supplied QI-value         = 15.68
 optimisation between [QCUT,QGAM] = [ 12.55, 25.10] = [ 44.09,176.36] Ry 
 Optimized for a Real-space Cutoff    1.56 Angstroem

   l    n(q)    QCUT    max X(q) W(low)/X(q) W(high)/X(q)  e(spline) 
   0     12    12.548    10.201    0.21E-04    0.36E-05    0.83E-07
   0     12    12.548     8.174    0.31E-04    0.62E-05    0.15E-06
   1     11    12.548     3.488    0.79E-05    0.23E-04    0.21E-06
   1     11    12.548     4.917    0.56E-04    0.13E-03    0.11E-05
   2     11    12.548   153.744    0.25E-03    0.10E-03    0.15E-05
   2     11    12.548   126.342    0.25E-03    0.10E-03    0.15E-05
 Optimization of the real space projectors (new method)

 maximal supplied QI-value         = 12.85
 optimisation between [QCUT,QGAM] = [ 12.46, 25.06] = [ 43.51,175.83] Ry 
 Optimized for a Real-space Cutoff    1.56 Angstroem

   l    n(q)    QCUT    max X(q) W(low)/X(q) W(high)/X(q)  e(spline) 
   2     11    12.465    62.315    0.36E-03    0.20E-03    0.15E-05
   2     11    12.465    52.185    0.36E-03    0.20E-03    0.15E-05
   0     12    12.465   103.837    0.22E-04    0.37E-05    0.56E-06
   0     12    12.465    59.728    0.20E-04    0.34E-05    0.51E-06
   1     11    12.465    13.958    0.44E-03    0.81E-03    0.81E-05
   1     11    12.465     8.441    0.31E-03    0.56E-03    0.56E-05
 Optimization of the real space projectors (new method)

 maximal supplied QI-value         = 13.42
 optimisation between [QCUT,QGAM] = [ 12.48, 25.09] = [ 43.60,176.28] Ry 
 Optimized for a Real-space Cutoff    1.56 Angstroem

   l    n(q)    QCUT    max X(q) W(low)/X(q) W(high)/X(q)  e(spline) 
   2     11    12.478    49.363    0.45E-03    0.34E-03    0.89E-06
   2     11    12.478    47.669    0.44E-03    0.33E-03    0.87E-06
   0     12    12.478    26.374    0.17E-03    0.37E-04    0.21E-05
   0     12    12.478    11.549    0.13E-03    0.31E-04    0.17E-05
   1     11    12.478     9.492    0.91E-05    0.64E-04    0.34E-06
 Optimization of the real space projectors (new method)

 maximal supplied QI-value         = 12.47
 optimisation between [QCUT,QGAM] = [ 12.47, 25.07] = [ 43.56,175.99] Ry 
 Optimized for a Real-space Cutoff    1.70 Angstroem

   l    n(q)    QCUT    max X(q) W(low)/X(q) W(high)/X(q)  e(spline) 
   2     12    12.472     5.149    0.23E-04    0.12E-05    0.19E-06
   2     12    12.472    48.417    0.26E-03    0.15E-03    0.35E-05
   0     13    12.472    27.113    0.15E-04    0.46E-05    0.14E-06
   0     13    12.472    33.957    0.20E-04    0.33E-04    0.12E-05
   1     12    12.472    13.771    0.11E-04    0.23E-05    0.34E-06
 WARNING: PSMAXN for non-local potential too small
          PSMAXN should be >   12.5490833729506       NTYP=           5
 Optimization of the real space projectors (new method)

 maximal supplied QI-value         = 24.76
 optimisation between [QCUT,QGAM] = [ 12.38, 25.00] = [ 42.90,175.06] Ry 
 Optimized for a Real-space Cutoff    1.13 Angstroem

   l    n(q)    QCUT    max X(q) W(low)/X(q) W(high)/X(q)  e(spline) 
   0      8    12.378    20.381    0.16E-03    0.54E-05    0.27E-06
   0      8    12.378    15.268    0.17E-03    0.61E-05    0.29E-06
   1      8    12.378     5.964    0.38E-03    0.23E-03    0.28E-06
   1      8    12.378     5.382    0.33E-03    0.20E-03    0.25E-06
  PAW_PBE Al 04Jan2001                  :
 energy of atom  1       EATOM=  -53.5387
 kinetic energy error for atom=    0.0002 (will be added to EATOM!!)
  PAW_PBE Nb_sv 25May2007               :
 energy of atom  2       EATOM=-1555.1913
 kinetic energy error for atom=    0.0037 (will be added to EATOM!!)
  PAW_PBE Ta 17Jan2003                  :
 energy of atom  3       EATOM= -130.6506
 kinetic energy error for atom=    0.0004 (will be added to EATOM!!)
  PAW_PBE Ti 08Apr2002                  :
 energy of atom  4       EATOM=  -94.7928
 kinetic energy error for atom=    0.0001 (will be added to EATOM!!)
 PAW_PBE Zr 08Apr2002                   :
 energy of atom  5       EATOM=  -77.8472
 kinetic energy error for atom=    0.0001 (will be added to EATOM!!)
  PAW_PBE O 08Apr2002                   :
 energy of atom  6       EATOM= -432.3788
 kinetic energy error for atom=    0.0168 (will be added to EATOM!!)
 
 
 POSCAR: Al Nb Ta Ti Zr                          
  positions in direct lattice
  velocities in cartesian coordinates
 exchange correlation table for  LEXCH =        8
   RHO(1)=    0.500       N(1)  =     2000
   RHO(2)=  100.500       N(2)  =     4000
 


--------------------------------------------------------------------------------------------------------


 ion  position               nearest neighbor table
   1  0.623  0.867  0.376-  34 2.83  25 2.88  24 2.88   9 2.88  13 2.90   4 2.91  61 2.93  15 3.16
                            41 3.35  17 3.40
   2  0.626  0.395  0.538-  90 1.84  86 1.91  31 2.61   7 2.66  33 2.68  23 2.72  26 2.94  17 2.97
                            62 2.99  16 3.09  10 3.12  42 3.30
   3  0.608  0.654  0.639-  75 1.79  78 1.80  79 1.81  86 1.85  85 2.11  91 2.39  32 2.76  26 2.90
                            23 2.93  45 3.09   8 3.14  33 3.19
   4  0.618  0.084  0.450-  31 2.80  24 2.86  34 2.87  13 2.88   1 2.91  25 2.92   7 2.92  62 3.08
                            28 3.16  12 3.18  46 3.24
   5  0.965  0.625  0.548-  82 2.19  88 2.23  30 2.71  63 2.82  42 2.86  52 2.93  23 2.94  47 3.11
                            57 3.32  56 3.36  59 3.44  58 3.48
   6  0.980  0.121  0.378-  29 2.80  28 2.80  53 2.91  41 2.96  51 3.05  55 3.05  60 3.08  57 3.37

   7  0.729  0.343  0.458-   2 2.66  28 2.77  29 2.83  31 2.85  17 2.89  11 2.90   4 2.92  63 3.07
                            42 3.17  62 3.19
   8  0.737  0.924  0.638-  91 2.06  78 2.08  71 2.09  83 2.19  77 2.29  18 2.66  27 2.88  32 2.94
                            30 2.94  64 2.94   3 3.14  62 3.20
   9  0.517  0.608  0.367-  35 2.84  15 2.85  17 2.87   1 2.88  11 2.89  61 2.95  43 3.10
  10  0.504  0.122  0.550-  90 2.12  16 2.60  12 2.78  36 2.90  44 2.96  46 3.09  18 3.12   2 3.12
                            62 3.14  40 3.41
  11  0.618  0.343  0.369-  24 2.75  34 2.83  31 2.87   9 2.89   7 2.90  61 2.96  43 3.27
  12  0.611  0.877  0.540-  91 2.01  85 2.39  10 2.78  25 2.79  13 2.83  62 2.88  33 3.00  44 3.14
                             4 3.18
  13  0.742  0.843  0.462-  30 2.71  12 2.83  17 2.87   4 2.88   1 2.90  28 2.94  63 2.98  41 3.05
                            57 3.27
  14  0.768  0.409  0.653-  79 1.98  89 2.00  74 2.00  76 2.04  58 2.89  23 3.02  27 3.02  64 3.06
                            42 3.14  18 3.17
  15  0.394  0.847  0.369-  22 2.68  19 2.76  25 2.83  34 2.84   9 2.85  39 2.98   1 3.16  46 3.43

  16  0.403  0.349  0.537-  84 2.14  87 2.22  10 2.60  31 2.65  33 2.80  21 2.83  20 2.84  37 2.87
                            26 2.92  40 2.93   2 3.09  46 3.25
  17  0.619  0.602  0.458-  33 2.77  25 2.81  31 2.85   9 2.87  13 2.87   7 2.89  61 2.95   2 2.97
                            35 3.03   1 3.40  63 3.44
  18  0.626  0.150  0.645-  72 1.99  90 2.01  71 2.08  74 2.08  89 2.59  32 2.64   8 2.66  26 2.83
                            36 3.02  10 3.12  62 3.14  14 3.17  64 3.60
  19  0.279  0.834  0.451-  15 2.76  35 2.94  46 2.96  39 2.97  25 2.99  44 2.99  60 3.07  51 3.08
                            47 3.12  56 3.15
  20  0.286  0.371  0.620-  70 2.03  69 2.13  67 2.19  87 2.20  84 2.24  16 2.84  36 2.94  21 2.97
                            59 3.07  40 3.09  26 3.09  48 3.13  52 3.24  45 3.31
  21  0.278  0.583  0.542-  84 2.10  80 2.12  82 2.16  87 2.18  16 2.83  20 2.97  37 3.00  59 3.01
                            35 3.02  33 3.06  44 3.08  47 3.09  56 3.10  52 3.18  45 3.39
  22  0.283  0.077  0.361-  15 2.68  46 2.97  43 2.97  34 2.99  51 3.02  55 3.10  60 3.10
  23  0.755  0.595  0.565-  91 1.97  79 2.20  86 2.27  30 2.63  42 2.69   2 2.72   3 2.93   5 2.94
                            14 3.02  63 3.35
  24  0.740  0.115  0.366-  29 2.73  11 2.75  28 2.85   4 2.86   1 2.88  41 3.00
  25  0.496  0.836  0.458-  35 2.78  12 2.79  17 2.81  15 2.83   1 2.88  44 2.89   4 2.92  19 2.99
                            46 2.99  33 3.11
  26  0.510  0.389  0.627-  70 1.98  74 2.07  75 2.15  86 2.16  87 2.27  90 2.32  18 2.83   3 2.90
                            36 2.91  16 2.92   2 2.94  20 3.09  45 3.29
  27  0.863  0.693  0.661-  68 1.97  76 1.98  77 1.98  79 1.99   8 2.88  58 2.97  54 2.98  14 3.02

  28  0.847  0.110  0.455-   7 2.77   6 2.80  24 2.85  57 2.90  13 2.94  62 2.96  53 2.98  29 3.15
                             4 3.16  50 3.19  41 3.36
  29  0.852  0.349  0.376-  24 2.73   6 2.80   7 2.83  53 2.94  61 2.98  49 3.07  28 3.15  63 3.25

  30  0.836  0.839  0.548-  83 2.02  91 2.10  88 2.16  23 2.63   5 2.71  13 2.71   8 2.94  57 3.04
                            62 3.07  50 3.10  63 3.46
  31  0.522  0.339  0.461-   2 2.61  16 2.65   4 2.80  17 2.85   7 2.85  35 2.86  11 2.87  46 2.95
                            43 3.11
  32  0.525  0.915  0.646-  78 1.92  72 1.98  85 2.05  65 2.07  36 2.59  18 2.64   3 2.76   8 2.94
                            45 2.99  44 3.43
  33  0.499  0.608  0.538-  86 2.11  85 2.16  87 2.24   2 2.68  35 2.77  17 2.77  16 2.80  44 2.95
                            12 3.00  21 3.06  25 3.11   3 3.19  45 3.47
  34  0.499  0.102  0.365-  11 2.83   1 2.83  15 2.84   4 2.87  43 2.91  46 2.98  22 2.99
  35  0.400  0.580  0.451-  33 2.77  25 2.78   9 2.84  31 2.86  37 2.88  39 2.93  19 2.94  21 3.02
                            17 3.03  43 3.08
  36  0.407  0.127  0.643-  70 1.97  72 2.00  67 2.05  65 2.24  32 2.59  10 2.90  26 2.91  20 2.94
                            38 3.01  18 3.02  40 3.36
  37  0.255  0.366  0.464-  84 2.14  16 2.87  35 2.88  21 3.00  47 3.02  60 3.04  43 3.05  55 3.08
                            46 3.08  40 3.23  52 3.30  39 3.39
  38  0.238  0.929  0.637-  73 1.93  65 2.04  67 2.13  80 2.19  54 2.91  56 2.91  48 2.95  36 3.01
                            59 3.12  40 3.15  45 3.16  44 3.29
  39  0.252  0.614  0.376-  35 2.93  19 2.97  15 2.98  47 3.07  43 3.07  51 3.07  55 3.08  37 3.39
                            49 3.53
  40  0.257  0.130  0.547-  84 2.27  67 2.42  16 2.93  56 3.04  44 3.06  20 3.09  60 3.09  46 3.09
                            38 3.15  37 3.23  48 3.25  52 3.29  36 3.36  10 3.41  50 3.81
  41  0.865  0.859  0.370-   6 2.96  24 3.00  61 3.05  13 3.05  57 3.06  49 3.12   1 3.35  28 3.36
                            51 3.49  63 3.53
  42  0.863  0.365  0.551-  89 2.23  81 2.27  23 2.69   5 2.86  62 2.95  50 3.12  14 3.14   7 3.17
                            52 3.19   2 3.30  53 3.31  58 3.33  63 3.36  64 3.65
  43  0.381  0.352  0.373-  34 2.91  22 2.97  37 3.05  39 3.07  35 3.08   9 3.10  31 3.11  55 3.26
                            11 3.27  46 3.29
  44  0.383  0.867  0.545-  80 2.31  85 2.41  25 2.89  33 2.95  10 2.96  19 2.99  40 3.06  21 3.08
                            12 3.14  56 3.19  38 3.29  45 3.35  46 3.35  32 3.43
  45  0.385  0.677  0.647-  75 2.03  69 2.05  87 2.17  65 2.18  80 2.24  85 2.33  32 2.99   3 3.09
                            38 3.16  59 3.27  26 3.29  20 3.31  44 3.35  21 3.39  33 3.47
  46  0.384  0.104  0.456-  31 2.95  19 2.96  22 2.97  34 2.98  25 2.99  37 3.08  10 3.09  40 3.09
                             4 3.24  16 3.25  60 3.27  43 3.29  44 3.35  15 3.43
  47  0.117  0.611  0.465-  82 2.31  37 3.02  39 3.07  21 3.09   5 3.11  19 3.12  53 3.14  49 3.15
                            57 3.17  56 3.23  52 3.28  63 3.42  51 3.52  55 3.80
  48  0.107  0.174  0.637-  66 2.11  67 2.12  81 2.24  38 2.95  54 2.99  58 3.08  52 3.09  64 3.11
                            50 3.12  20 3.13  40 3.25
  49  0.996  0.593  0.368-  63 3.05  29 3.07  41 3.12  47 3.15  51 3.16  55 3.23  53 3.44  39 3.53
                            61 3.65  57 3.82
  50  0.982  0.087  0.548-  81 2.20  88 2.25  83 2.29  57 3.06  30 3.10  42 3.12  48 3.12  28 3.19
                            52 3.22  56 3.25  54 3.26  64 3.30  62 3.47  53 3.52  60 3.53  40 3.81
  51  0.119  0.872  0.375-  60 3.00  22 3.02   6 3.05  39 3.07  19 3.08  57 3.16  49 3.16  41 3.49
                            47 3.52
  52  0.094  0.382  0.552-  84 2.15  81 2.26  82 2.32   5 2.93  53 3.08  48 3.09  21 3.18  42 3.19
                            50 3.22  20 3.24  47 3.28  59 3.28  58 3.28  40 3.29  37 3.30
  53  1.000  0.331  0.453-   6 2.91  29 2.94  28 2.98  60 3.06  52 3.08  63 3.08  55 3.09  47 3.14
                            42 3.31  49 3.44  50 3.52
  54  0.029  0.882  0.640-  73 2.14  68 2.20  77 2.21  88 2.36  38 2.91  27 2.98  59 2.98  48 2.99
                            56 3.12  64 3.18  50 3.26
  55  0.145  0.332  0.368-   6 3.05  37 3.08  39 3.08  53 3.09  22 3.10  49 3.23  60 3.24  43 3.26
                            47 3.80
  56  0.151  0.851  0.545-  88 2.22  82 2.23  80 2.36  38 2.91  40 3.04  21 3.10  54 3.12  19 3.15
                            59 3.17  44 3.19  47 3.23  57 3.25  50 3.25   5 3.36  60 3.48
  57  0.979  0.876  0.465-  88 2.55  28 2.90  30 3.04  41 3.06  50 3.06  63 3.11  60 3.13  51 3.16
                            47 3.17  56 3.25  13 3.27   5 3.32   6 3.37  49 3.82
  58  0.978  0.432  0.654-  76 2.12  66 2.13  68 2.19  81 2.22  14 2.89  27 2.97  64 3.08  48 3.08
                            59 3.12  52 3.28  42 3.33   5 3.48
  59  0.153  0.628  0.630-  69 2.14  68 2.17  73 2.17  80 2.26  82 2.30  54 2.98  21 3.01  20 3.07
                            38 3.12  58 3.12  56 3.17  45 3.27  52 3.28   5 3.44
  60  0.147  0.092  0.451-  51 3.00  37 3.04  53 3.06  19 3.07   6 3.08  40 3.09  22 3.10  57 3.13
                            55 3.24  46 3.27  56 3.48  50 3.53
  61  0.731  0.606  0.367-   1 2.93  17 2.95   9 2.95  11 2.96  29 2.98  41 3.05  63 3.17  49 3.65

  62  0.731  0.123  0.545-  83 2.24  89 2.26  90 2.27  12 2.88  42 2.95  28 2.96   2 2.99  30 3.07
                             4 3.08  10 3.14  18 3.14   7 3.19   8 3.20  50 3.47  64 3.75
  63  0.869  0.592  0.458-   5 2.82  13 2.98  49 3.05   7 3.07  53 3.08  57 3.11  61 3.17  29 3.25
                            23 3.35  42 3.36  47 3.42  17 3.44  30 3.46  41 3.53
  64  0.886  0.138  0.656-  66 2.12  71 2.15  89 2.17  83 2.28  77 2.38  81 2.45   8 2.94  14 3.06
                            58 3.08  48 3.11  54 3.18  50 3.30  18 3.60  42 3.65  62 3.75
  65  0.378  0.901  0.660-  38 2.04  32 2.07  45 2.18  36 2.24
  66  0.006  0.239  0.690-  48 2.11  64 2.12  58 2.13
  67  0.260  0.149  0.635-  36 2.05  48 2.12  38 2.13  20 2.19  40 2.42
  68  0.002  0.657  0.651-  27 1.97  59 2.17  58 2.19  54 2.20
  69  0.275  0.546  0.668-  45 2.05  20 2.13  59 2.14
  70  0.397  0.322  0.665-  36 1.97  26 1.98  20 2.03
  71  0.746  0.092  0.686-  18 2.08   8 2.09  64 2.15
  72  0.519  0.084  0.687-  32 1.98  18 1.99  36 2.00
  73  0.157  0.810  0.676-  38 1.93  54 2.14  59 2.17
  74  0.632  0.356  0.669-  14 2.00  26 2.07  18 2.08
  75  0.507  0.577  0.670-   3 1.79  45 2.03  26 2.15
  76  0.863  0.515  0.697-  27 1.98  14 2.04  58 2.12
  77  0.885  0.895  0.674-  27 1.98  54 2.21   8 2.29  64 2.38
  78  0.630  0.811  0.673-   3 1.80  32 1.92   8 2.08
  79  0.735  0.609  0.644-   3 1.81  14 1.98  27 1.99  23 2.20
  80  0.274  0.747  0.593-  21 2.12  38 2.19  45 2.24  59 2.26  44 2.31  56 2.36
  81  0.982  0.269  0.597-  50 2.20  58 2.22  48 2.24  52 2.26  42 2.27  64 2.45
  82  0.124  0.621  0.548-  21 2.16   5 2.19  56 2.23  59 2.30  47 2.31  52 2.32
  83  0.845  0.015  0.589-  30 2.02   8 2.19  62 2.24  64 2.28  50 2.29
  84  0.249  0.367  0.541-  21 2.10  16 2.14  37 2.14  52 2.15  20 2.24  40 2.27
  85  0.505  0.760  0.595-  32 2.05   3 2.11  33 2.16  45 2.33  12 2.39  44 2.41
  86  0.603  0.530  0.587-   3 1.85   2 1.91  33 2.11  26 2.16  23 2.27
  87  0.393  0.519  0.591-  45 2.17  21 2.18  20 2.20  16 2.22  33 2.24  26 2.27
  88  0.992  0.854  0.557-  30 2.16  56 2.22   5 2.23  50 2.25  54 2.36  57 2.55
  89  0.786  0.247  0.609-  14 2.00  64 2.17  42 2.23  62 2.26  18 2.59
  90  0.613  0.250  0.581-   2 1.84  18 2.01  10 2.12  62 2.27  26 2.32
  91  0.707  0.783  0.583-  23 1.97  12 2.01   8 2.06  30 2.10   3 2.39
 
  LATTYP: Found a simple orthorhombic cell.
 ALAT       =     9.5644817352
 B/A-ratio  =     1.4398428730
 C/A-ratio  =     2.8922184390
  
  Lattice vectors:
  
 A1 = (   0.0000000000,  -9.5644817352,   0.0000000000)
 A2 = ( -13.7713508606,   0.0000000000,   0.0000000000)
 A3 = (   0.0000000000,   0.0000000000, -27.6625704340)


Analysis of symmetry for initial positions (statically):
=====================================================================
 Subroutine PRICEL returns:
 Original cell was already a primitive cell.
 

 Routine SETGRP: Setting up the symmetry group for a 
 simple orthorhombic supercell.


 Subroutine GETGRP returns: Found  1 space group operations
 (whereof  1 operations were pure point group operations)
 out of a pool of  8 trial point group operations.


The static configuration has the point symmetry C_1 .


Analysis of symmetry for dynamics (positions and initial velocities):
=====================================================================
 Subroutine PRICEL returns:
 Original cell was already a primitive cell.
 

 Routine SETGRP: Setting up the symmetry group for a 
 simple orthorhombic supercell.


 Subroutine GETGRP returns: Found  1 space group operations
 (whereof  1 operations were pure point group operations)
 out of a pool of  8 trial point group operations.


The dynamic configuration has the point symmetry C_1 .


Analysis of constrained symmetry for selective dynamics:
=====================================================================
 Subroutine PRICEL returns:
 Original cell was already a primitive cell.
 

 Routine SETGRP: Setting up the symmetry group for a 
 simple orthorhombic supercell.


 Subroutine GETGRP returns: Found  1 space group operations
 (whereof  1 operations were pure point group operations)
 out of a pool of  8 trial point group operations.


The constrained configuration has the point symmetry C_1 .


 Subroutine INISYM returns: Found  1 space group operations
 (whereof  1 operations are pure point group operations),
 and found     1 'primitive' translations

 
 
 KPOINTS: k-points                                

Automatic generation of k-mesh.
Space group operators:
 irot       det(A)        alpha          n_x          n_y          n_z        tau_x        tau_y        tau_z
    1     1.000000     0.000000     1.000000     0.000000     0.000000     0.000000     0.000000     0.000000
 
 Subroutine IBZKPT returns following result:
 ===========================================
 
 Found      5 irreducible k-points:
 
 Following reciprocal coordinates:
            Coordinates               Weight
  0.000000  0.000000  0.000000      1.000000
  0.333333  0.000000  0.000000      2.000000
  0.000000  0.333333  0.000000      2.000000
  0.333333  0.333333  0.000000      2.000000
 -0.333333  0.333333  0.000000      2.000000
 
 Following cartesian coordinates:
            Coordinates               Weight
  0.000000  0.000000  0.000000      1.000000
  0.024205  0.000000  0.000000      2.000000
  0.000000  0.034851  0.000000      2.000000
  0.024205  0.034851  0.000000      2.000000
 -0.024205  0.034851  0.000000      2.000000
 


--------------------------------------------------------------------------------------------------------




 Dimension of arrays:
   k-points           NKPTS =      5   k-points in BZ     NKDIM =      5   number of bands    NBANDS=    304
   number of dos      NEDOS =    301   number of ions     NIONS =     91
   non local maximal  LDIM  =      6   non local SUM 2l+1 LMDIM =     18
   total plane-waves  NPLWV = 846720
   max r-space proj   IRMAX =   4874   max aug-charges    IRDMAX=  25433
   dimension x,y,z NGX =    84 NGY =   60 NGZ =  168
   dimension x,y,z NGXF=   168 NGYF=  120 NGZF=  336
   support grid    NGXF=   168 NGYF=  120 NGZF=  336
   ions per type =               6  10   4  18  26  27
 NGX,Y,Z   is equivalent  to a cutoff of  10.14, 10.43, 10.10 a.u.
 NGXF,Y,Z  is equivalent  to a cutoff of  20.28, 20.86, 20.19 a.u.


 I would recommend the setting:
   dimension x,y,z NGX =    83 NGY =   57 NGZ =  166
 SYSTEM =  (110) surface                           
 POSCAR =  Al Nb Ta Ti Zr                          

 Startparameter for this run:
   NWRITE =      2    write-flag & timer
   PREC   = normal    normal or accurate (medium, high low for compatibility)
   ISTART =      0    job   : 0-new  1-cont  2-samecut
   ICHARG =      2    charge: 1-file 2-atom 10-const
   ISPIN  =      1    spin polarized calculation?
   LNONCOLLINEAR =      F non collinear calculations
   LSORBIT =      F    spin-orbit coupling
   INIWAV =      1    electr: 0-lowe 1-rand  2-diag
   LASPH  =      F    aspherical Exc in radial PAW
   METAGGA=      F    non-selfconsistent MetaGGA calc.

 Electronic Relaxation 1
   ENCUT  =  600.0 eV  44.10 Ry    6.64 a.u.  27.50 19.10 55.25*2*pi/ulx,y,z
   ENINI  =  600.0     initial cutoff
   ENAUG  =  605.4 eV  augmentation charge cutoff
   NELM   =     60;   NELMIN=  2; NELMDL= -5     # of ELM steps 
   EDIFF  = 0.1E-03   stopping-criterion for ELM
   LREAL  =      T    real-space projection
   NLSPLINE    = F    spline interpolate recip. space projectors
   LCOMPAT=      F    compatible to vasp.4.4
   GGA_COMPAT  = T    GGA compatible to vasp.4.4-vasp.4.6
   LMAXPAW     = -100 max onsite density
   LMAXMIX     =    2 max onsite mixed and CHGCAR
   VOSKOWN=      0    Vosko Wilk Nusair interpolation
   ROPT   =   -0.00050  -0.00050  -0.00050  -0.00050
   ROPT   =   -0.00050  -0.00050
 Ionic relaxation
   EDIFFG = -.1E-01   stopping-criterion for IOM
   NSW    =      0    number of steps for IOM
   NBLOCK =      1;   KBLOCK =      1    inner block; outer block 
   IBRION =     -1    ionic relax: 0-MD 1-quasi-New 2-CG
   NFREE  =      0    steps in history (QN), initial steepest desc. (CG)
   ISIF   =      2    stress and relaxation
   IWAVPR =     10    prediction:  0-non 1-charg 2-wave 3-comb
   ISYM   =      2    0-nonsym 1-usesym 2-fastsym
   LCORR  =      T    Harris-Foulkes like correction to forces

   POTIM  = 0.1000    time-step for ionic-motion
   TEIN   =    0.0    initial temperature
   TEBEG  =    0.0;   TEEND  =   0.0 temperature during run
   SMASS  =  -3.00    Nose mass-parameter (am)
   estimated Nose-frequenzy (Omega)   =  0.10E-29 period in steps =****** mass=  -0.433E-26a.u.
   SCALEE = 1.0000    scale energy and forces
   NPACO  =    256;   APACO  = 16.0  distance and # of slots for P.C.
   PSTRESS=    0.0 pullay stress

  Mass of Ions in am
   POMASS =  26.98 92.91180.95 47.88 91.22 16.00
  Ionic Valenz
   ZVAL   =   3.00 13.00  5.00  4.00  4.00  6.00
  Atomic Wigner-Seitz radii
   RWIGS  =  -1.00 -1.00 -1.00 -1.00 -1.00 -1.00
  virtual crystal weights 
   VCA    =   1.00  1.00  1.00  1.00  1.00  1.00
   NELECT =     506.0000    total number of electrons
   NUPDOWN=      -1.0000    fix difference up-down

 DOS related values:
   EMIN   =  10.00;   EMAX   =-10.00  energy-range for DOS
   EFERMI =   0.00
   ISMEAR =     2;   SIGMA  =   0.10  broadening in eV -4-tet -1-fermi 0-gaus

 Electronic relaxation 2 (details)
   IALGO  =     68    algorithm
   LDIAG  =      T    sub-space diagonalisation (order eigenvalues)
   LSUBROT=      F    optimize rotation matrix (better conditioning)
   TURBO    =      0    0=normal 1=particle mesh
   IRESTART =      0    0=no restart 2=restart with 2 vectors
   NREBOOT  =      0    no. of reboots
   NMIN     =      0    reboot dimension
   EREF     =   0.00    reference energy to select bands
   IMIX   =      4    mixing-type and parameters
     AMIX     =   0.40;   BMIX     =  1.00
     AMIX_MAG =   1.60;   BMIX_MAG =  1.00
     AMIN     =   0.10
     WC   =   100.;   INIMIX=   1;  MIXPRE=   1;  MAXMIX= -45

 Intra band minimization:
   WEIMIN = 0.0000     energy-eigenvalue tresh-hold
   EBREAK =  0.82E-07  absolut break condition
   DEPER  =   0.30     relativ break condition  

   TIME   =   0.40     timestep for ELM

  volume/ion in A,a.u.               =      40.04       270.20
  Fermi-wavevector in a.u.,A,eV,Ry     =   0.847777  1.602066  9.778853  0.718725
  Thomas-Fermi vector in A             =   1.963336
 
 Write flags
   LWAVE  =      F    write WAVECAR
   LCHARG =      F    write CHGCAR
   LVTOT  =      F    write LOCPOT, total local potential
   LVHAR  =      T    write LOCPOT, Hartree potential only
   LELF   =      F    write electronic localiz. function (ELF)
   LORBIT =      0    0 simple, 1 ext, 2 COOP (PROOUT)


 Dipole corrections
   LMONO  =      F    monopole corrections only (constant potential shift)
   LDIPOL =      F    correct potential (dipole corrections)
   IDIPOL =      0    1-x, 2-y, 3-z, 4-all directions 
   EPSILON=  1.0000000 bulk dielectric constant

 Exchange correlation treatment:
   GGA     =    --    GGA type
   LEXCH   =     8    internal setting for exchange type
   VOSKOWN=      0    Vosko Wilk Nusair interpolation
   LHFCALC =     F    Hartree Fock is set to
   LHFONE  =     F    Hartree Fock one center treatment
   AEXX    =    0.0000 exact exchange contribution

 Linear response parameters
   LEPSILON=     F    determine dielectric tensor
   LRPA    =     F    only Hartree local field effects (RPA)
   LNABLA  =     F    use nabla operator in PAW spheres
   LVEL    =     F    velocity operator in full k-point grid
   LINTERFAST=   F  fast interpolation
   KINTER  =     0    interpolate to denser k-point grid
   CSHIFT  =0.1000    complex shift for real part using Kramers Kronig
   OMEGAMAX=  -1.0    maximum frequency
   DEG_THRESHOLD= 0.2000000E-02 threshold for treating states as degnerate
   RTIME   =    0.100 relaxation time in fs

 Orbital magnetization related:
   ORBITALMAG=     F  switch on orbital magnetization
   LCHIMAG   =     F  perturbation theory with respect to B field
   DQ        =  0.001000  dq finite difference perturbation B field



--------------------------------------------------------------------------------------------------------


 Static calculation
 charge density and potential will be updated during run
 non-spin polarized calculation
 RMM-DIIS sequential band-by-band and
  variant of blocked Davidson during initial phase
 perform sub-space diagonalisation
    before iterative eigenvector-optimisation
 modified Broyden-mixing scheme, WC =      100.0
 initial mixing is a Kerker type mixing with AMIX =  0.4000 and BMIX =      1.0000
 Hartree-type preconditioning will be used
 using additional bands           51
 real space projection scheme for non local part
 use partial core corrections
 calculate Harris-corrections to forces 
   (improved forces if not selfconsistent)
 use gradient corrections 
 use of overlap-Matrix (Vanderbilt PP)
 Methfessel and Paxton  Order N= 2 SIGMA  =   0.10


--------------------------------------------------------------------------------------------------------


  energy-cutoff  :      600.00
  volume of cell :     3643.60
      direct lattice vectors                 reciprocal lattice vectors
    13.771350861  0.000000000  0.000000000     0.072614518  0.000000000  0.000000000
     0.000000000  9.564481735  0.000000000     0.000000000  0.104553496  0.000000000
     0.000000000  0.000000000 27.662570434     0.000000000  0.000000000  0.036149931

  length of vectors
    13.771350861  9.564481735 27.662570434     0.072614518  0.104553496  0.036149931


 
 k-points in units of 2pi/SCALE and weight: k-points                                
   0.00000000  0.00000000  0.00000000       0.111
   0.02420484  0.00000000  0.00000000       0.222
   0.00000000  0.03485117  0.00000000       0.222
   0.02420484  0.03485117  0.00000000       0.222
  -0.02420484  0.03485117  0.00000000       0.222
 
 k-points in reciprocal lattice and weights: k-points                                
   0.00000000  0.00000000  0.00000000       0.111
   0.33333333  0.00000000  0.00000000       0.222
   0.00000000  0.33333333  0.00000000       0.222
   0.33333333  0.33333333  0.00000000       0.222
  -0.33333333  0.33333333  0.00000000       0.222
 
 position of ions in fractional coordinates (direct lattice) 
   0.62276447  0.86746430  0.37590333
   0.62575104  0.39487102  0.53771832
   0.60782401  0.65411384  0.63854684
   0.61839700  0.08363760  0.44965952
   0.96480855  0.62530571  0.54784276
   0.97963780  0.12056648  0.37767599
   0.72857308  0.34338307  0.45816820
   0.73716356  0.92432155  0.63753951
   0.51739597  0.60805875  0.36719826
   0.50376343  0.12206017  0.55016797
   0.61811078  0.34297293  0.36889183
   0.61061386  0.87742376  0.53968161
   0.74231148  0.84345710  0.46199300
   0.76830640  0.40928048  0.65305720
   0.39405298  0.84738672  0.36896032
   0.40349297  0.34928027  0.53657455
   0.61928761  0.60162497  0.45752798
   0.62579284  0.15023129  0.64473509
   0.27944195  0.83362269  0.45088327
   0.28575252  0.37116309  0.62031337
   0.27762921  0.58284687  0.54166765
   0.28324246  0.07725573  0.36149931
   0.75508764  0.59513906  0.56512480
   0.74002355  0.11549973  0.36646499
   0.49591756  0.83582580  0.45790018
   0.50961004  0.38854438  0.62700551
   0.86280655  0.69344405  0.66102906
   0.84724605  0.11017048  0.45460239
   0.85243583  0.34907103  0.37639265
   0.83634091  0.83933434  0.54800038
   0.52175105  0.33942658  0.46105252
   0.52473747  0.91548541  0.64570708
   0.49923740  0.60792654  0.53787427
   0.49943882  0.10200214  0.36464270
   0.40016663  0.58028412  0.45130253
   0.40717180  0.12685435  0.64310748
   0.25505811  0.36595738  0.46399110
   0.23780135  0.92923975  0.63718612
   0.25182599  0.61397660  0.37627308
   0.25663678  0.13039734  0.54743936
   0.86539888  0.85904646  0.37036829
   0.86319028  0.36505146  0.55080940
   0.38059813  0.35186696  0.37331264
   0.38298348  0.86673608  0.54522773
   0.38487053  0.67668685  0.64706181
   0.38408008  0.10357511  0.45579618
   0.11657381  0.61110574  0.46457054
   0.10745962  0.17391419  0.63730497
   0.99629861  0.59295863  0.36811234
   0.98157275  0.08712371  0.54824421
   0.11869311  0.87196302  0.37467704
   0.09425317  0.38237212  0.55219210
   0.99977952  0.33051389  0.45306987
   0.02929898  0.88226098  0.63952140
   0.14482272  0.33176249  0.36788561
   0.15141920  0.85067834  0.54504817
   0.97888047  0.87608504  0.46520830
   0.97787992  0.43177484  0.65424612
   0.15267575  0.62764018  0.62980323
   0.14721048  0.09173214  0.45072276
   0.73135245  0.60578495  0.36679988
   0.73120402  0.12279137  0.54468241
   0.86923259  0.59196168  0.45825814
   0.88621319  0.13823997  0.65620395
   0.37769476  0.90146473  0.65990778
   0.00565341  0.23861464  0.68968681
   0.26041242  0.14934059  0.63482104
   0.00236139  0.65739349  0.65077123
   0.27494594  0.54569593  0.66793912
   0.39732350  0.32247611  0.66519181
   0.74553343  0.09234105  0.68569760
   0.51854148  0.08379160  0.68703770
   0.15658618  0.81034350  0.67641154
   0.63156468  0.35564282  0.66901171
   0.50705959  0.57660218  0.66962043
   0.86309297  0.51462693  0.69677587
   0.88468703  0.89497152  0.67404039
   0.63037393  0.81068751  0.67304802
   0.73508418  0.60909348  0.64390845
   0.27355470  0.74691068  0.59298845
   0.98216666  0.26864983  0.59702707
   0.12362715  0.62091819  0.54790445
   0.84532770  0.01466680  0.58863049
   0.24884451  0.36712147  0.54144474
   0.50543733  0.76041732  0.59539263
   0.60302376  0.52987842  0.58734581
   0.39300296  0.51934536  0.59091418
   0.99203185  0.85376846  0.55670049
   0.78596338  0.24689267  0.60862703
   0.61268006  0.25003498  0.58110299
   0.70744657  0.78253398  0.58325929
 
 position of ions in cartesian coordinates  (Angst):
   8.57630799  8.29684649 10.39845223
   8.61743707  3.77673667 14.87467092
   8.37055764  6.25625984 17.66384692
   8.51616202  0.79995025 12.43873821
  13.28671703  5.98072509 15.15473891
  13.49093588  1.15315590 10.44748880
  10.03343557  3.28428114 12.67411000
  10.15173803  8.84065660 17.63598151
   7.12524148  5.81576681 10.15764776
   6.93750300  1.16744226 15.21906018
   8.51222037  3.28035836 10.20449636
   8.40897775  8.39210356 14.92898050
  10.22263181  8.06723005 12.77991378
  10.58061703  3.91455571 18.06524078
   5.42664188  8.10481479 10.20639088
   5.55664326  3.34068478 14.84303139
   8.52842696  5.75423100 12.65640004
   8.61801282  1.43688445 17.83502974
   3.84829318  7.97316903 12.47259035
   3.93519821  3.54998257 17.15946237
   3.82332929  5.57462826 14.98391953
   3.90063135  0.73891098 10.00000000
  10.39857682  5.69219672 15.63280469
  10.19112400  1.10469510 10.13736353
   6.82945470  7.99424061 12.66669595
   7.01801863  3.71622560 17.34458401
  11.88201172  6.63243293 18.28576284
  11.66772263  1.05372358 12.57547056
  11.73919286  3.33868345 10.41198829
  11.51754406  8.02779796 15.15909904
   7.18521672  3.24643930 12.75389771
   7.22634379  8.75614349 17.86191761
   6.87517337  5.81450232 14.87898483
   6.87794726  0.97559764 10.08695433
   5.51083508  5.55011685 12.48418803
   5.60730576  1.21329609 17.79000604
   3.51249472  3.50019267 12.83518635
   3.27484583  8.88769660 17.62620605
   3.46798404  5.87236796 10.40868071
   3.53423513  1.24718302 15.14357976
  11.91771166  8.21633417 10.24533883
  11.88729617  3.49152802 15.23680393
   5.24135036  3.36542512 10.32678719
   5.27419989  8.28988140 15.08240047
   5.30018717  6.47215898 17.89939278
   5.28930157  0.99064225 12.60849381
   1.60537885  5.84490969 12.85121538
   1.47986412  1.66339914 17.62949351
  13.72037774  5.67134198 10.18293350
  13.51758278  0.83329318 15.16584413
   1.63456451  8.33987442 10.36453009
   1.29799349  3.65719119 15.27505278
  13.76831459  3.16119411 12.53307716
   0.40348647  8.43836904 17.69080569
   1.99440444  3.17313630 10.17666150
   2.08524695  8.13629740 15.07743330
  13.48050634  8.37929939 12.86885734
  13.46672745  4.12970256 18.09812951
   2.10255135  6.00305302 17.42197626
   2.02728715  0.87737042 12.46815015
  10.07171117  5.79401911 10.14662739
  10.06966715  1.17443584 15.06731545
  11.97050705  5.66180669 12.67659812
  12.20435276  1.32219364 18.15228811
   5.20136707  8.62204298 18.25474534
   0.07785504  2.28222541 19.07850989
   3.58623074  1.42836533 17.56078184
   0.03251957  6.28762806 18.00200502
   3.78637705  5.21929873 18.47691286
   5.47168129  3.08431686 18.40091516
  10.26700242  0.88319430 18.96815812
   7.14101665  0.80142318 19.00522881
   2.15640329  7.75051558 18.71128198
   8.69749874  3.40153930 18.50658362
   6.98289550  5.51490101 18.52342228
  11.88595611  4.92213983 19.27461153
  12.18333547  8.55993880 18.64568972
   8.68110051  7.75380586 18.61823839
  10.12310209  5.82566345 17.81216281
   3.76721778  7.14381351 16.40358479
  13.52576169  2.56949638 16.51530335
   1.70251286  5.93876064 15.15644540
  11.64130429  0.14028038 16.28303247
   3.42692503  3.51132660 14.97775324
   6.96055487  7.27299760 16.47009053
   8.30445176  5.06801251 16.24749481
   5.41218167  4.96726924 16.34620502
  13.66161874  8.16585280 15.39976650
  10.82377752  2.36140044 16.83618814
   8.43743209  2.39145498 16.07480234
   9.74249493  7.48453192 16.13445113
 


--------------------------------------------------------------------------------------------------------


 k-point  1 :   0.0000 0.0000 0.0000  plane waves:  121663
 k-point  2 :   0.3333 0.0000 0.0000  plane waves:  121577
 k-point  3 :   0.0000 0.3333 0.0000  plane waves:  121622
 k-point  4 :   0.3333 0.3333 0.0000  plane waves:  121647
 k-point  5 :  -0.3333 0.3333 0.0000  plane waves:  121647

 maximum and minimum number of plane-waves per node :      5107     5041

 maximum number of plane-waves:    121663
 maximum index in each direction: 
   IXMAX=   27   IYMAX=   19   IZMAX=   55
   IXMIN=  -27   IYMIN=  -19   IZMIN=  -55

 WARNING: aliasing errors must be expected set NGX to 110 to avoid them
 WARNING: aliasing errors must be expected set NGY to  78 to avoid them
 WARNING: aliasing errors must be expected set NGZ to 222 to avoid them
 aliasing errors are usually negligible using standard VASP settings
 and one can safely disregard these warnings

 real space projection operators:
  total allocation   :      31608.32 KBytes
  max/ min on nodes  :       1491.84       1113.49


 parallel 3D FFT for wavefunctions:
    minimum data exchange during FFTs selected (reduces bandwidth)
 parallel 3D FFT for charge:
    minimum data exchange during FFTs selected (reduces bandwidth)


 total amount of memory used by VASP on root node    83190. kBytes
========================================================================

   base      :      30000. kBytes
   nonlr-proj:       9289. kBytes
   fftplans  :       3890. kBytes
   grid      :       8747. kBytes
   one-center:         62. kBytes
   wavefun   :      31202. kBytes
 
     INWAV:  cpu time    0.0000: real time    0.0000
 Broyden mixing: mesh for mixing (old mesh)
   NGX = 55   NGY = 39   NGZ =111
  (NGX  =168   NGY  =120   NGZ  =336)
  gives a total of 238095 points

 initial charge density was supplied:
 charge density of overlapping atoms calculated
 number of electron     506.0000000 magnetization 
 keeping initial charge density in first step


--------------------------------------------------------------------------------------------------------


 Maximum index for non-local projection operator          371
 Maximum index for augmentation-charges         1033 (set IRDMAX)


--------------------------------------------------------------------------------------------------------


 First call to EWALD:  gamma=   0.115
 Maximum number of real-space cells 3x 4x 2
 Maximum number of reciprocal cells 3x 2x 5

 FEWALD executed in parallel
    FEWALD:  cpu time    0.0027: real time    0.0027


----------------------------------------- Iteration    1(   1)  ---------------------------------------


    POTLOK:  cpu time    0.0597: real time    0.0603
    SETDIJ:  cpu time    0.0135: real time    0.0138
     EDDAV:  cpu time    7.3930: real time    7.3986
       DOS:  cpu time    0.0012: real time    0.0012
    --------------------------------------------
      LOOP:  cpu time    7.4712: real time    7.4786

 eigenvalue-minimisations  :  3168
 total energy-change (2. order) : 0.6837437E+04  (-0.1977199E+05)
 number of electron     506.0000000 magnetization 
 augmentation part      506.0000000 magnetization 

 Free energy of the ion-electron system (eV)
  ---------------------------------------------------
  alpha Z        PSCENC =       833.42043146
  Ewald energy   TEWEN  =    143275.34085658
  -Hartree energ DENC   =   -171884.94767382
  -exchange      EXHF   =         0.00000000
  -V(xc)+E(xc)   XCENC  =     -2330.06610054
  PAW double counting   =     28796.11699920   -24753.44732793
  entropy T*S    EENTRO =        -0.00478543
  eigenvalues    EBANDS =      1101.24893558
  atomic energy  EATOM  =     31799.77603165
  Solvation  Ediel_sol  =         0.00000000
  ---------------------------------------------------
  free energy    TOTEN  =      6837.43736675 eV

  energy without entropy =     6837.44215218  energy(sigma->0) =     6837.43856310


--------------------------------------------------------------------------------------------------------




----------------------------------------- Iteration    1(   2)  ---------------------------------------


     EDDAV:  cpu time    7.2935: real time    7.2936
       DOS:  cpu time    0.0011: real time    0.0011
    --------------------------------------------
      LOOP:  cpu time    7.2960: real time    7.3010

 eigenvalue-minimisations  :  3128
 total energy-change (2. order) :-0.5665093E+04  (-0.5483158E+04)
 number of electron     506.0000000 magnetization 
 augmentation part      506.0000000 magnetization 

 Free energy of the ion-electron system (eV)
  ---------------------------------------------------
  alpha Z        PSCENC =       833.42043146
  Ewald energy   TEWEN  =    143275.34085658
  -Hartree energ DENC   =   -171884.94767382
  -exchange      EXHF   =         0.00000000
  -V(xc)+E(xc)   XCENC  =     -2330.06610054
  PAW double counting   =     28796.11699920   -24753.44732793
  entropy T*S    EENTRO =         0.00153223
  eigenvalues    EBANDS =     -4563.85023125
  atomic energy  EATOM  =     31799.77603165
  Solvation  Ediel_sol  =         0.00000000
  ---------------------------------------------------
  free energy    TOTEN  =      1172.34451758 eV

  energy without entropy =     1172.34298536  energy(sigma->0) =     1172.34413453


--------------------------------------------------------------------------------------------------------




----------------------------------------- Iteration    1(   3)  ---------------------------------------


     EDDAV:  cpu time   11.3441: real time   11.3442
       DOS:  cpu time    0.0010: real time    0.0010
    --------------------------------------------
      LOOP:  cpu time   11.3462: real time   11.3520

 eigenvalue-minimisations  :  5448
 total energy-change (2. order) :-0.1775041E+04  (-0.1719297E+04)
 number of electron     506.0000000 magnetization 
 augmentation part      506.0000000 magnetization 

 Free energy of the ion-electron system (eV)
  ---------------------------------------------------
  alpha Z        PSCENC =       833.42043146
  Ewald energy   TEWEN  =    143275.34085658
  -Hartree energ DENC   =   -171884.94767382
  -exchange      EXHF   =         0.00000000
  -V(xc)+E(xc)   XCENC  =     -2330.06610054
  PAW double counting   =     28796.11699920   -24753.44732793
  entropy T*S    EENTRO =         0.00304017
  eigenvalues    EBANDS =     -6338.89235074
  atomic energy  EATOM  =     31799.77603165
  Solvation  Ediel_sol  =         0.00000000
  ---------------------------------------------------
  free energy    TOTEN  =      -602.69609397 eV

  energy without entropy =     -602.69913414  energy(sigma->0) =     -602.69685401


--------------------------------------------------------------------------------------------------------




----------------------------------------- Iteration    1(   4)  ---------------------------------------


     EDDAV:  cpu time    9.7764: real time    9.7765
       DOS:  cpu time    0.0010: real time    0.0010
    --------------------------------------------
      LOOP:  cpu time    9.7786: real time    9.7850

 eigenvalue-minimisations  :  4560
 total energy-change (2. order) :-0.2665244E+03  (-0.2593116E+03)
 number of electron     506.0000000 magnetization 
 augmentation part      506.0000000 magnetization 

 Free energy of the ion-electron system (eV)
  ---------------------------------------------------
  alpha Z        PSCENC =       833.42043146
  Ewald energy   TEWEN  =    143275.34085658
  -Hartree energ DENC   =   -171884.94767382
  -exchange      EXHF   =         0.00000000
  -V(xc)+E(xc)   XCENC  =     -2330.06610054
  PAW double counting   =     28796.11699920   -24753.44732793
  entropy T*S    EENTRO =        -0.00180469
  eigenvalues    EBANDS =     -6605.41189307
  atomic energy  EATOM  =     31799.77603165
  Solvation  Ediel_sol  =         0.00000000
  ---------------------------------------------------
  free energy    TOTEN  =      -869.22048116 eV

  energy without entropy =     -869.21867647  energy(sigma->0) =     -869.22002999


--------------------------------------------------------------------------------------------------------




----------------------------------------- Iteration    1(   5)  ---------------------------------------


     EDDAV:  cpu time   11.3854: real time   11.3855
       DOS:  cpu time    0.0010: real time    0.0010
    CHARGE:  cpu time    0.2131: real time    0.2140
    MIXING:  cpu time    0.0051: real time    0.0051
    --------------------------------------------
      LOOP:  cpu time   11.6057: real time   11.6124

 eigenvalue-minimisations  :  5480
 total energy-change (2. order) :-0.1926450E+02  (-0.1885896E+02)
 number of electron     505.9999936 magnetization 
 augmentation part       60.9678217 magnetization 

 Broyden mixing:
  rms(total) = 0.87653E+01    rms(broyden)= 0.87651E+01
  rms(prec ) = 0.91824E+01
  weight for this iteration     100.00

 Free energy of the ion-electron system (eV)
  ---------------------------------------------------
  alpha Z        PSCENC =       833.42043146
  Ewald energy   TEWEN  =    143275.34085658
  -Hartree energ DENC   =   -171884.94767382
  -exchange      EXHF   =         0.00000000
  -V(xc)+E(xc)   XCENC  =     -2330.06610054
  PAW double counting   =     28796.11699920   -24753.44732793
  entropy T*S    EENTRO =         0.00050906
  eigenvalues    EBANDS =     -6624.67870568
  atomic energy  EATOM  =     31799.77603165
  Solvation  Ediel_sol  =         0.00000000
  ---------------------------------------------------
  free energy    TOTEN  =      -888.48498003 eV

  energy without entropy =     -888.48548908  energy(sigma->0) =     -888.48510729


--------------------------------------------------------------------------------------------------------




----------------------------------------- Iteration    1(   6)  ---------------------------------------


    POTLOK:  cpu time    0.0500: real time    0.0500
    SETDIJ:  cpu time    0.0076: real time    0.0076
    EDDIAG:  cpu time    1.1550: real time    1.1552
  RMM-DIIS:  cpu time    5.5349: real time    5.5351
    ORTHCH:  cpu time    0.3598: real time    0.3599
       DOS:  cpu time    0.0011: real time    0.0011
    CHARGE:  cpu time    0.2139: real time    0.2139
    MIXING:  cpu time    0.0030: real time    0.0031
    --------------------------------------------
      LOOP:  cpu time    7.3272: real time    7.3337

 eigenvalue-minimisations  :  4970
 total energy-change (2. order) : 0.8858081E+01  (-0.1602691E+03)
 number of electron     505.9999955 magnetization 
 augmentation part       74.3366352 magnetization 

 Broyden mixing:
  rms(total) = 0.51306E+01    rms(broyden)= 0.51302E+01
  rms(prec ) = 0.63550E+01
  weight for this iteration     100.00

 eigenvalues of (default mixing * dielectric matrix)
  average eigenvalue GAMMA=   0.8009
  0.8009

 Free energy of the ion-electron system (eV)
  ---------------------------------------------------
  alpha Z        PSCENC =       833.42043146
  Ewald energy   TEWEN  =    143275.34085658
  -Hartree energ DENC   =   -172971.24556045
  -exchange      EXHF   =         0.00000000
  -V(xc)+E(xc)   XCENC  =     -2281.37214857
  PAW double counting   =     34345.31639339   -30316.45324387
  entropy T*S    EENTRO =        -0.00879705
  eigenvalues    EBANDS =     -5564.40086199
  atomic energy  EATOM  =     31799.77603165
  Solvation  Ediel_sol  =         0.00000000
  ---------------------------------------------------
  free energy    TOTEN  =      -879.62689885 eV

  energy without entropy =     -879.61810180  energy(sigma->0) =     -879.62469958


--------------------------------------------------------------------------------------------------------




----------------------------------------- Iteration    1(   7)  ---------------------------------------


    POTLOK:  cpu time    0.0503: real time    0.0503
    SETDIJ:  cpu time    0.0075: real time    0.0075
    EDDIAG:  cpu time    1.1469: real time    1.1469
  RMM-DIIS:  cpu time    4.5854: real time    4.5854
    ORTHCH:  cpu time    0.3560: real time    0.3561
       DOS:  cpu time    0.0010: real time    0.0010
    CHARGE:  cpu time    0.2135: real time    0.2135
    MIXING:  cpu time    0.0018: real time    0.0018
    --------------------------------------------
      LOOP:  cpu time    6.3640: real time    6.3702

 eigenvalue-minimisations  :  4075
 total energy-change (2. order) :-0.8288968E+01  (-0.4023306E+02)
 number of electron     505.9999961 magnetization 
 augmentation part       71.8851120 magnetization 

 Broyden mixing:
  rms(total) = 0.46447E+01    rms(broyden)= 0.46447E+01
  rms(prec ) = 0.74696E+01
  weight for this iteration     100.00

 eigenvalues of (default mixing * dielectric matrix)
  average eigenvalue GAMMA=   0.6958
  1.0123  0.3793

 Free energy of the ion-electron system (eV)
  ---------------------------------------------------
  alpha Z        PSCENC =       833.42043146
  Ewald energy   TEWEN  =    143275.34085658
  -Hartree energ DENC   =   -172159.46879711
  -exchange      EXHF   =         0.00000000
  -V(xc)+E(xc)   XCENC  =     -2287.62028647
  PAW double counting   =     35448.37356292   -31431.82177274
  entropy T*S    EENTRO =         0.00516742
  eigenvalues    EBANDS =     -6365.92106016
  atomic energy  EATOM  =     31799.77603165
  Solvation  Ediel_sol  =         0.00000000
  ---------------------------------------------------
  free energy    TOTEN  =      -887.91586644 eV

  energy without entropy =     -887.92103386  energy(sigma->0) =     -887.91715829


--------------------------------------------------------------------------------------------------------




----------------------------------------- Iteration    1(   8)  ---------------------------------------


    POTLOK:  cpu time    0.0498: real time    0.0498
    SETDIJ:  cpu time    0.0075: real time    0.0075
    EDDIAG:  cpu time    1.1595: real time    1.1595
  RMM-DIIS:  cpu time    5.3758: real time    5.3759
    ORTHCH:  cpu time    0.3583: real time    0.3583
       DOS:  cpu time    0.0011: real time    0.0011
    CHARGE:  cpu time    0.2112: real time    0.2112
    MIXING:  cpu time    0.0019: real time    0.0019
    --------------------------------------------
      LOOP:  cpu time    7.1666: real time    7.1735

 eigenvalue-minimisations  :  4786
 total energy-change (2. order) : 0.5725898E+02  (-0.2422454E+02)
 number of electron     505.9999956 magnetization 
 augmentation part       61.0613675 magnetization 

 Broyden mixing:
  rms(total) = 0.38155E+01    rms(broyden)= 0.38155E+01
  rms(prec ) = 0.57590E+01
  weight for this iteration     100.00

 eigenvalues of (default mixing * dielectric matrix)
  average eigenvalue GAMMA=   0.6470
  1.2664  0.4129  0.2618

 Free energy of the ion-electron system (eV)
  ---------------------------------------------------
  alpha Z        PSCENC =       833.42043146
  Ewald energy   TEWEN  =    143275.34085658
  -Hartree energ DENC   =   -172730.48949347
  -exchange      EXHF   =         0.00000000
  -V(xc)+E(xc)   XCENC  =     -2289.40872221
  PAW double counting   =     36550.45116370   -32536.88964998
  entropy T*S    EENTRO =         0.00259568
  eigenvalues    EBANDS =     -5732.86010284
  atomic energy  EATOM  =     31799.77603165
  Solvation  Ediel_sol  =         0.00000000
  ---------------------------------------------------
  free energy    TOTEN  =      -830.65688941 eV

  energy without entropy =     -830.65948510  energy(sigma->0) =     -830.65753834


--------------------------------------------------------------------------------------------------------




----------------------------------------- Iteration    1(   9)  ---------------------------------------


    POTLOK:  cpu time    0.0501: real time    0.0501
    SETDIJ:  cpu time    0.0075: real time    0.0075
    EDDIAG:  cpu time    1.1580: real time    1.1580
  RMM-DIIS:  cpu time    4.8032: real time    4.8033
    ORTHCH:  cpu time    0.3590: real time    0.3592
       DOS:  cpu time    0.0011: real time    0.0011
    CHARGE:  cpu time    0.2136: real time    0.2136
    MIXING:  cpu time    0.0019: real time    0.0019
    --------------------------------------------
      LOOP:  cpu time    6.5959: real time    6.6027

 eigenvalue-minimisations  :  4297
 total energy-change (2. order) : 0.4959466E+02  (-0.7629080E+01)
 number of electron     505.9999955 magnetization 
 augmentation part       62.7201657 magnetization 

 Broyden mixing:
  rms(total) = 0.23670E+01    rms(broyden)= 0.23670E+01
  rms(prec ) = 0.28991E+01
  weight for this iteration     100.00

 eigenvalues of (default mixing * dielectric matrix)
  average eigenvalue GAMMA=   0.6982
  1.5966  0.4936  0.4936  0.2089

 Free energy of the ion-electron system (eV)
  ---------------------------------------------------
  alpha Z        PSCENC =       833.42043146
  Ewald energy   TEWEN  =    143275.34085658
  -Hartree energ DENC   =   -172595.10841614
  -exchange      EXHF   =         0.00000000
  -V(xc)+E(xc)   XCENC  =     -2287.54008494
  PAW double counting   =     37742.88456307   -33722.75066415
  entropy T*S    EENTRO =         0.00018368
  eigenvalues    EBANDS =     -5827.08513343
  atomic energy  EATOM  =     31799.77603165
  Solvation  Ediel_sol  =         0.00000000
  ---------------------------------------------------
  free energy    TOTEN  =      -781.06223221 eV

  energy without entropy =     -781.06241589  energy(sigma->0) =     -781.06227813


[...]
   0.291E+03 -.124E+03 0.215E+04   -.291E+03 0.125E+03 -.214E+04   0.236E+00 -.396E+00 -.419E+01   -.292E-02 -.761E-03 -.499E-02
   0.278E+03 0.536E+02 0.576E+03   -.276E+03 -.553E+02 -.578E+03   -.182E+01 0.168E+01 0.202E+01   -.904E-03 -.323E-02 -.656E-02
   -.319E+02 -.931E+01 0.509E+03   0.309E+02 0.914E+01 -.509E+03   0.120E+01 0.234E+00 0.199E+00   0.823E-03 -.208E-02 -.429E-02
   0.603E+02 0.939E+01 -.653E+03   -.618E+02 -.105E+02 0.654E+03   0.158E+01 0.116E+01 -.506E+00   0.590E-03 0.126E-02 -.128E-02
   0.166E+03 -.230E+02 0.480E+03   -.165E+03 0.229E+02 -.481E+03   -.153E+01 0.416E+00 0.608E+00   -.783E-03 -.788E-03 -.335E-02
   0.235E+03 0.407E+02 -.493E+03   -.235E+03 -.396E+02 0.494E+03   -.348E+00 -.110E+01 -.905E+00   -.907E-04 0.326E-03 -.276E-02
   0.106E+03 -.689E+02 0.169E+03   -.105E+03 0.699E+02 -.171E+03   -.926E+00 -.926E+00 0.247E+01   -.598E-03 -.118E-03 -.315E-02
   0.116E+03 -.540E+02 0.652E+03   -.115E+03 0.540E+02 -.649E+03   -.777E+00 -.177E+00 -.275E+01   0.113E-02 -.299E-03 -.578E-03
   -.172E+03 0.666E+02 0.957E+02   0.173E+03 -.665E+02 -.964E+02   -.112E+01 -.131E+00 0.726E+00   0.188E-03 -.917E-03 -.246E-02
   -.992E+02 0.600E+02 0.707E+03   0.986E+02 -.595E+02 -.704E+03   0.398E+00 -.403E+00 -.286E+01   -.439E-03 0.869E-03 -.152E-02
   0.765E+02 -.253E+02 0.420E+03   -.774E+02 0.245E+02 -.420E+03   0.888E+00 0.802E+00 -.895E+00   -.107E-02 0.492E-03 -.367E-02
   0.731E+02 0.198E+02 -.428E+03   -.734E+02 -.202E+02 0.430E+03   0.279E+00 0.369E+00 -.194E+01   -.371E-03 0.324E-03 -.204E-02
   -.131E+03 -.173E+02 -.563E+03   0.132E+03 0.168E+02 0.561E+03   -.262E+00 0.536E+00 0.124E+01   -.390E-04 -.159E-03 -.117E-02
   -.159E+03 0.124E+01 0.447E+03   0.158E+03 -.127E+01 -.448E+03   0.415E+00 -.245E+00 -.185E+00   -.622E-03 0.577E-03 -.412E-02
   -.149E+03 -.498E+01 0.672E+03   0.148E+03 0.497E+01 -.669E+03   0.818E+00 -.509E-01 -.261E+01   -.160E-02 -.822E-03 -.166E-02
   -.183E+03 0.520E+02 0.149E+03   0.183E+03 -.523E+02 -.151E+03   0.169E-01 0.270E+00 0.178E+01   0.676E-03 -.499E-03 -.236E-02
   0.686E+02 0.205E+02 0.449E+03   -.684E+02 -.201E+02 -.449E+03   -.196E+00 0.486E-01 -.528E+00   0.487E-03 -.556E-03 -.324E-02
   0.121E+03 -.129E+02 -.530E+03   -.120E+03 0.144E+02 0.530E+03   -.111E+01 -.143E+01 0.604E+00   0.225E-03 -.609E-03 -.839E-03
   0.714E+02 -.282E+02 0.206E+03   -.714E+02 0.286E+02 -.209E+03   -.111E-01 -.374E+00 0.257E+01   -.578E-03 -.120E-02 -.228E-02
   0.337E+02 0.773E+00 0.685E+03   -.344E+02 -.810E+00 -.682E+03   0.534E+00 0.841E-02 -.258E+01   0.761E-03 0.513E-03 -.128E-02
   0.126E+03 -.158E+01 0.426E+03   -.126E+03 0.160E+01 -.425E+03   -.968E+00 0.708E+00 -.485E+00   -.142E-02 -.411E-03 -.314E-02
   0.125E+03 0.362E+02 -.491E+03   -.124E+03 -.346E+02 0.490E+03   -.162E+01 -.159E+01 0.141E+01   -.421E-03 0.149E-02 -.159E-02
   0.130E+03 0.209E+02 0.488E+03   -.131E+03 -.208E+02 -.490E+03   0.113E+00 -.411E+00 0.147E+01   0.114E-03 0.568E-03 -.241E-02
   0.903E+02 -.584E+02 -.413E+03   -.918E+02 0.583E+02 0.412E+03   0.152E+01 0.884E-01 0.865E+00   -.413E-03 -.367E-03 -.184E-02
   0.125E+03 0.368E+02 0.627E+03   -.125E+03 -.366E+02 -.625E+03   0.157E+00 -.508E+00 -.294E+01   0.262E-03 0.290E-03 -.577E-03
   0.146E+03 0.908E+02 0.938E+02   -.146E+03 -.915E+02 -.950E+02   -.691E+00 0.723E+00 0.113E+01   0.236E-03 0.396E-03 -.327E-02
   -.963E+02 -.171E+01 0.678E+03   0.965E+02 0.174E+01 -.674E+03   -.563E+00 -.359E-01 -.330E+01   -.449E-03 0.428E-03 -.147E-02
   -.147E+03 -.430E+02 0.147E+03   0.147E+03 0.430E+02 -.147E+03   0.143E+00 0.269E-01 0.466E+00   -.239E-04 0.561E-03 -.265E-02
   0.128E+03 0.313E+02 0.652E+03   -.127E+03 -.316E+02 -.649E+03   -.203E+00 0.399E+00 -.242E+01   0.371E-03 0.968E-04 -.117E-02
   0.154E+03 -.302E+02 0.118E+03   -.154E+03 0.315E+02 -.121E+03   -.295E-01 -.127E+01 0.254E+01   -.134E-02 0.182E-03 -.321E-02
   0.103E+03 -.455E+02 -.579E+03   -.102E+03 0.431E+02 0.577E+03   -.499E+00 0.239E+01 0.152E+01   -.236E-03 -.975E-03 -.108E-02
   0.120E+03 0.101E+02 0.448E+03   -.120E+03 -.102E+02 -.448E+03   0.245E+00 -.136E+00 -.708E+00   -.225E-03 0.378E-03 -.254E-02
   0.426E+02 0.135E+01 0.444E+03   -.427E+02 -.138E+01 -.445E+03   0.260E+00 0.890E-02 0.520E+00   0.631E-03 0.350E-03 -.268E-02
   -.386E+02 0.244E+02 -.413E+03   0.376E+02 -.253E+02 0.412E+03   0.956E+00 0.896E+00 0.117E+01   -.378E-04 0.640E-03 -.154E-02
   -.379E+02 0.505E+00 0.632E+03   0.382E+02 -.186E+00 -.628E+03   -.124E+00 -.230E+00 -.309E+01   -.486E-04 0.216E-03 -.741E-03
   -.137E+03 -.303E+02 0.144E+03   0.137E+03 0.307E+02 -.144E+03   -.371E+00 -.327E+00 0.500E+00   0.599E-03 -.564E-04 -.245E-02
   0.508E+02 -.599E+01 0.615E+03   -.508E+02 0.524E+01 -.612E+03   0.182E-01 0.260E+00 -.326E+01   0.169E-03 -.842E-03 -.502E-03
   0.511E+02 0.336E+02 0.708E+02   -.509E+02 -.340E+02 -.709E+02   -.194E+00 0.426E+00 0.118E+00   0.452E-03 0.505E-03 -.264E-02
   -.625E+02 0.391E+01 0.426E+03   0.627E+02 -.350E+01 -.426E+03   0.435E-01 0.226E+00 -.168E+00   0.162E-03 0.543E-03 -.263E-02
   -.893E+02 -.636E+02 -.422E+03   0.909E+02 0.639E+02 0.422E+03   -.162E+01 -.271E+00 0.272E+00   -.172E-03 0.968E-05 -.154E-02
   0.423E+02 0.383E+01 0.627E+03   -.416E+02 -.373E+01 -.623E+03   -.864E+00 -.360E+00 -.341E+01   0.287E-03 0.735E-03 -.679E-03
   0.106E+02 -.843E+02 0.123E+03   -.106E+02 0.850E+02 -.124E+03   0.479E-01 -.662E+00 0.290E+00   0.130E-03 -.514E-03 -.370E-02
   -.948E+02 -.888E+01 0.434E+03   0.941E+02 0.835E+01 -.436E+03   0.857E+00 -.501E-01 0.990E+00   0.686E-03 -.522E-03 -.300E-02
   -.163E+03 -.115E+02 -.484E+03   0.161E+03 0.108E+02 0.483E+03   0.198E+01 0.731E+00 0.697E+00   0.246E-03 -.145E-03 -.126E-02
   0.575E+02 0.480E+02 -.396E+03   -.567E+02 -.477E+02 0.397E+03   -.758E+00 -.380E+00 -.237E+00   -.321E-04 -.541E-03 -.198E-02
   0.506E+02 -.291E+01 0.421E+03   -.499E+02 0.280E+01 -.421E+03   -.923E+00 0.509E+00 -.199E-01   0.517E-03 -.391E-03 -.200E-02
   -.141E+03 -.432E+02 0.704E+03   0.140E+03 0.426E+02 -.700E+03   0.802E+00 0.644E-01 -.341E+01   0.207E-03 -.664E-03 -.127E-02
   -.113E+03 -.309E+02 0.186E+03   0.113E+03 0.304E+02 -.186E+03   -.276E+00 0.466E+00 0.231E+00   -.212E-03 0.800E-03 -.297E-02
   -.145E+03 0.121E+02 0.427E+03   0.144E+03 -.119E+02 -.427E+03   0.339E+00 0.214E+00 0.227E+00   0.322E-03 -.321E-03 -.293E-02
   -.183E+03 0.522E+00 -.571E+03   0.182E+03 0.170E+00 0.570E+03   0.734E+00 -.690E+00 0.102E+01   0.170E-03 -.159E-04 -.877E-03
   0.169E+03 -.926E+01 -.930E+03   -.170E+03 0.120E+02 0.939E+03   0.107E+01 -.277E+01 -.890E+01   -.629E-03 -.190E-02 -.365E-03
   -.175E+03 0.209E+02 -.107E+04   0.178E+03 -.222E+02 0.108E+04   -.329E+01 0.133E+01 -.179E+02   -.184E-03 -.134E-04 -.738E-03
   0.188E+03 0.386E+02 -.667E+03   -.188E+03 -.406E+02 0.672E+03   -.344E+00 0.208E+01 -.530E+01   -.883E-03 0.354E-02 -.316E-02
   -.149E+03 0.298E+02 -.723E+03   0.151E+03 -.296E+02 0.725E+03   -.227E+01 -.166E+00 -.262E+01   0.215E-02 -.599E-04 -.282E-02
   0.162E+03 0.172E+02 -.102E+04   -.165E+03 -.208E+02 0.104E+04   0.260E+01 0.363E+01 -.184E+02   -.671E-04 -.107E-02 -.212E-02
   0.154E+03 0.214E+02 -.106E+04   -.152E+03 -.175E+02 0.108E+04   -.237E+01 -.390E+01 -.211E+02   -.472E-03 0.251E-02 -.186E-02
   -.862E+02 -.806E+02 -.126E+04   0.876E+02 0.823E+02 0.128E+04   -.139E+01 -.170E+01 -.205E+02   0.943E-03 -.789E-04 -.938E-03
   0.135E+03 -.861E+01 -.120E+04   -.140E+03 0.106E+02 0.123E+04   0.469E+01 -.195E+01 -.241E+02   0.985E-03 0.217E-02 0.298E-02
   0.222E+02 -.377E+02 -.101E+04   -.215E+02 0.349E+02 0.103E+04   -.658E+00 0.283E+01 -.193E+02   -.147E-02 -.190E-02 0.120E-03
   0.158E+03 0.118E+02 -.111E+04   -.165E+03 -.406E+01 0.113E+04   0.646E+01 -.774E+01 -.149E+02   0.485E-03 0.122E-02 -.135E-02
   0.129E+03 -.863E+01 -.112E+04   -.131E+03 0.527E+00 0.114E+04   0.161E+01 0.810E+01 -.191E+02   0.348E-03 -.875E-03 -.147E-02
   -.228E+03 -.425E+02 -.125E+04   0.229E+03 0.426E+02 0.127E+04   -.888E+00 -.108E+00 -.203E+02   -.120E-02 -.241E-02 -.472E-03
   -.280E+03 0.107E-01 -.105E+04   0.281E+03 0.453E+01 0.107E+04   -.350E+00 -.454E+01 -.109E+02   0.414E-03 0.238E-02 -.156E-02
   0.115E+03 0.599E+02 -.120E+04   -.111E+03 -.596E+02 0.123E+04   -.377E+01 -.282E+00 -.214E+02   0.205E-02 -.210E-02 -.877E-04
   -.897E+02 -.829E+02 -.747E+03   0.906E+02 0.904E+02 0.749E+03   -.919E+00 -.747E+01 -.265E+01   -.184E-02 -.216E-02 -.198E-02
   0.135E+03 -.886E+02 -.236E+03   -.134E+03 0.894E+02 0.235E+03   -.124E+01 -.775E+00 0.791E+00   -.581E-03 -.194E-02 -.537E-02
   -.185E+03 -.148E+02 -.202E+03   0.183E+03 0.155E+02 0.202E+03   0.271E+01 -.710E+00 -.341E+00   0.753E-04 0.247E-03 -.294E-02
   0.915E+02 0.815E+01 0.138E+03   -.937E+02 -.829E+01 -.138E+03   0.218E+01 0.141E+00 0.491E+00   0.647E-03 0.403E-03 -.543E-02
   -.307E+03 -.646E+02 -.869E+02   0.311E+03 0.665E+02 0.879E+02   -.398E+01 -.184E+01 -.104E+01   0.529E-03 0.616E-04 -.130E-02
   0.323E+03 0.624E+02 0.173E+03   -.327E+03 -.644E+02 -.177E+03   0.453E+01 0.198E+01 0.410E+01   0.940E-03 0.498E-03 -.360E-02
   0.216E+03 -.130E+02 -.307E+03   -.216E+03 0.124E+02 0.304E+03   0.104E+00 0.688E+00 0.346E+01   -.690E-03 -.203E-02 -.264E-02
   -.633E+01 0.179E+02 -.145E+03   0.865E+01 -.190E+02 0.146E+03   -.231E+01 0.112E+01 -.740E+00   0.658E-03 -.143E-02 -.202E-02
   0.151E+03 -.976E+02 -.314E+03   -.147E+03 0.102E+03 0.314E+03   -.401E+01 -.417E+01 -.695E-01   -.129E-02 -.230E-02 -.285E-02
   -.154E+03 -.807E+01 0.865E+02   0.153E+03 0.591E+01 -.853E+02   0.603E+00 0.217E+01 -.116E+01   0.189E-02 -.496E-03 -.413E-02
   -.202E+03 0.341E+02 -.240E+03   0.200E+03 -.400E+02 0.235E+03   0.259E+01 0.590E+01 0.462E+01   0.555E-03 0.128E-02 -.145E-02
   -.670E+02 -.457E+02 -.142E+03   0.699E+02 0.502E+02 0.142E+03   -.284E+01 -.452E+01 -.198E+00   -.145E-02 0.170E-02 -.429E-02
   -.168E+03 0.146E+03 -.104E+03   0.166E+03 -.151E+03 0.107E+03   0.150E+01 0.509E+01 -.373E+01   0.817E-03 -.968E-03 -.213E-02
 -----------------------------------------------------------------------------------------------
   -.518E+01 0.375E+01 0.238E+03   0.767E-12 0.256E-12 0.159E-11   0.513E+01 -.374E+01 -.238E+03   0.140E-02 -.807E-02 -.241E+00
 
 
 POSITION                                       TOTAL-FORCE (eV/Angst)
 -----------------------------------------------------------------------------------
      8.57631      8.29685     10.39845        -0.044237     -0.170191      0.110238
      8.61744      3.77674     14.87467         0.008987      0.007211      0.004655
      8.37056      6.25626     17.66385         0.005218      0.003896      0.002694
      8.51616      0.79995     12.43874         0.107756     -0.114171      0.477706
     13.28672      5.98073     15.15474         0.005368      0.003626     -0.003587
     13.49094      1.15316     10.44749         0.008303     -0.428714      0.006626
     10.03344      3.28428     12.67411         0.523841      0.051686     -0.570441
     10.15174      8.84066     17.63598         0.004257      0.004770      0.006432
      7.12524      5.81577     10.15765        -0.179950     -0.425584      0.924091
      6.93750      1.16744     15.21906         0.003664      0.005716     -0.003417
      8.51222      3.28036     10.20450         0.222419      0.015257      0.748188
      8.40898      8.39210     14.92898         0.007852     -0.000301      0.006103
     10.22263      8.06723     12.77991         0.198326      0.720151     -0.810541
     10.58062      3.91456     18.06524         0.005334     -0.004409      0.014584
      5.42664      8.10481     10.20639         0.324474      0.115751      0.955596
      5.55664      3.34068     14.84303         0.003831      0.006038     -0.002568
      8.52843      5.75423     12.65640         0.218336      0.059418     -0.425637
      8.61801      1.43688     17.83503         0.001525      0.003376      0.000417
      3.84829      7.97317     12.47259        -0.471526      0.324754     -0.264797
      3.93520      3.54998     17.15946         0.002539      0.006905     -0.003591
      3.82333      5.57463     14.98392        -0.000918      0.003252     -0.002322
      3.90063      0.73891     10.00000         0.473453     -0.175307      0.268644
     10.39858      5.69220     15.63280         0.023590      0.000503      0.029413
     10.19112      1.10470     10.13736        -0.228101      0.090977      0.403052
      6.82945      7.99424     12.66670        -0.036866      0.045568     -0.861317
      7.01802      3.71623     17.34458         0.003440      0.004040     -0.001143
     11.88201      6.63243     18.28576         0.004305     -0.002721      0.016620
     11.66772      1.05372     12.57547        -0.414656     -0.275845     -0.515811
     11.73919      3.33868     10.41199        -0.264139     -0.058944      0.584968
     11.51754      8.02780     15.15910        -0.002692     -0.001301      0.001774
      7.18522      3.24644     12.75390         0.012856      0.438709     -1.087596
      7.22634      8.75614     17.86192         0.002116      0.003804      0.002118
      6.87517      5.81450     14.87898         0.002963      0.003581     -0.000194
      6.87795      0.97560     10.08695        -0.103133     -0.027320      0.154544
      5.51084      5.55012     12.48419        -0.352315      0.728333     -0.181683
      5.60731      1.21330     17.79001         0.000040      0.003480     -0.004865
      3.51249      3.50019     12.83519        -0.285566     -0.346078     -0.116631
      3.27485      8.88770     17.62621        -0.000339      0.002633     -0.003859
      3.46798      5.87237     10.40868         0.045838     -0.264154     -0.147078
      3.53424      1.24718     15.14358        -0.000136      0.003465     -0.002046
     11.91771      8.21633     10.24534        -0.300088     -0.002953      0.631785
     11.88730      3.49153     15.23680         0.000370     -0.001799     -0.002023
      5.24135      3.36543     10.32679         0.114386      0.115134      0.095517
      5.27420      8.28988     15.08240         0.001599      0.004465      0.000890
      5.30019      6.47216     17.89939         0.003715      0.005193     -0.004713
      5.28930      0.99064     12.60849         0.126879     -0.231896     -0.394070
      1.60538      5.84491     12.85122         0.150048     -0.020083     -0.598882
      1.47986      1.66340     17.62949         0.000987      0.001887     -0.001476
     13.72038      5.67134     10.18293         0.230483      0.089154      0.523732
     13.51758      0.83329     15.16584         0.000223      0.000941     -0.001168
      1.63456      8.33987     10.36453        -0.030631     -0.490127      0.058682
      1.29799      3.65719     15.27505         0.000727      0.000679     -0.001359
     13.76831      3.16119     12.53308         0.258452      0.634528     -0.275733
      0.40349      8.43837     17.69081        -0.001890      0.000710     -0.003957
      1.99440      3.17314     10.17666        -0.180679     -0.253634      0.573624
      2.08525      8.13630     15.07743         0.000480      0.002177     -0.002727
     13.48051      8.37930     12.86886         0.173651     -0.581118     -0.225645
     13.46673      4.12970     18.09813         0.003865      0.000326     -0.002652
      2.10255      6.00305     17.42198         0.000812      0.002336     -0.001019
      2.02729      0.87737     12.46815        -0.206258      0.398517     -0.203816
     10.07171      5.79402     10.14663         0.155299     -0.551453      0.193706
     10.06967      1.17444     15.06732         0.002791     -0.001064      0.001521
     11.97051      5.66181     12.67660        -0.395590      0.446575     -0.094577
     12.20435      1.32219     18.15229         0.003694      0.000950      0.000565
      5.20137      8.62204     18.25475        -0.000244      0.005639     -0.007474
      0.07786      2.28223     19.07851         0.004160      0.001524     -0.000759
      3.58623      1.42837     17.56078         0.001678      0.006184     -0.001843
      0.03252      6.28763     18.00201         0.001596      0.000122      0.008767
      3.78638      5.21930     18.47691         0.002072      0.004812     -0.002556
      5.47168      3.08432     18.40092         0.000878      0.004067     -0.000738
     10.26700      0.88319     18.96816         0.000218      0.002890      0.000339
      7.14102      0.80142     19.00523        -0.000981      0.003066     -0.002296
      2.15640      7.75052     18.71128        -0.001451      0.004422     -0.001957
      8.69750      3.40154     18.50658         0.000822      0.002236      0.000815
      6.98290      5.51490     18.52342         0.002548      0.003113     -0.002024
     11.88596      4.92214     19.27461         0.006513     -0.006300      0.009451
     12.18334      8.55994     18.64569         0.003055      0.000776      0.005098
      8.68110      7.75381     18.61824         0.001713      0.005117      0.002919
     10.12310      5.82566     17.81216         0.003396     -0.001895      0.016234
      3.76722      7.14381     16.40358         0.000009      0.004567     -0.004290
     13.52576      2.56950     16.51530         0.000244      0.001858     -0.000059
      1.70251      5.93876     15.15645         0.000609      0.002185     -0.002009
     11.64130      0.14028     16.28303         0.002960     -0.001647      0.001802
      3.42693      3.51133     14.97775         0.001536      0.004162     -0.000777
      6.96055      7.27300     16.47009         0.002290      0.006614     -0.002708
      8.30445      5.06801     16.24749         0.007087      0.005651      0.000565
      5.41218      4.96727     16.34621         0.003641      0.005868     -0.001713
     13.66162      8.16585     15.39977        -0.000731      0.000090     -0.002533
     10.82378      2.36140     16.83619         0.002624      0.001561      0.001712
      8.43743      2.39145     16.07480         0.004759      0.006145     -0.001633
      9.74249      7.48453     16.13445        -0.000385     -0.004135      0.012119
 -----------------------------------------------------------------------------------
    total drift:                               -0.041556      0.005109      0.004315


--------------------------------------------------------------------------------------------------------



  FREE ENERGIE OF THE ION-ELECTRON SYSTEM (eV)
  ---------------------------------------------------
  free  energy   TOTEN  =      -766.20109687 eV

  energy  without entropy=     -766.20510887  energy(sigma->0) =     -766.20209987
 


--------------------------------------------------------------------------------------------------------


    POTLOK:  cpu time    0.0622: real time    0.0624


--------------------------------------------------------------------------------------------------------


     LOOP+:  cpu time  240.5051: real time  240.7399
    4ORBIT:  cpu time    0.0000: real time    0.0000

 total amount of memory used by VASP on root node    83190. kBytes
========================================================================

   base      :      30000. kBytes
   nonlr-proj:       9289. kBytes
   fftplans  :       3890. kBytes
   grid      :       8747. kBytes
   one-center:         62. kBytes
   wavefun   :      31202. kBytes
 
  
  
 General timing and accounting informations for this job:
 ========================================================
  
                  Total CPU time used (sec):      259.365
                            User time (sec):      255.278
                          System time (sec):        4.087
                         Elapsed time (sec):      259.556
  
                   Maximum memory used (kb):      158460.
                   Average memory used (kb):           0.
  
                          Minor page faults:        42818
                          Major page faults:            0
                 Voluntary context switches:         2804
