 vasp.5.4.1 05Feb16 (build Mar 19 2020 08:54:17) complex                        
  
 executed on           IFC91_ompi date 2021.10.24  15:53:45
 running on   96 total cores
 distrk:  each k-point on   96 cores,    1 groups
 distr:  one band on NCORES_PER_BAND=  48 cores,    2 groups


--------------------------------------------------------------------------------------------------------


 INCAR:
 POTCAR:    PAW_PBE Al 04Jan2001                  
 POTCAR:    PAW_PBE Nb_sv 25May2007               
 POTCAR:    PAW_PBE Ta 17Jan2003                  
 POTCAR:    PAW_PBE Ti 08Apr2002                  
 POTCAR:   PAW_PBE Zr 08Apr2002                   
 POTCAR:    PAW_PBE O 08Apr2002                   

 ----------------------------------------------------------------------------- 
|                                                                             |
|           W    W    AA    RRRRR   N    N  II  N    N   GGGG   !!!           |
|           W    W   A  A   R    R  NN   N  II  NN   N  G    G  !!!           |
|           W    W  A    A  R    R  N N  N  II  N N  N  G       !!!           |
|           W WW W  AAAAAA  RRRRR   N  N N  II  N  N N  G  GGG   !            |
|           WW  WW  A    A  R   R   N   NN  II  N   NN  G    G                |
|           W    W  A    A  R    R  N    N  II  N    N   GGGG   !!!           |
|                                                                             |
|      For optimal performance we recommend to set                            |
|        NCORE= 4 - approx SQRT( number of cores)                             |
|      NCORE specifies how many cores store one orbital (NPAR=cpu/NCORE).     |
|      This setting can  greatly improve the performance of VASP for DFT.     |
|      The default, NPAR=number of cores might be grossly inefficient         |
|      on modern multi-core architectures or massively parallel machines.     |
|      Do your own testing !!!!                                               |
|      Unfortunately you need to use the default for GW and RPA calculations. |
|      (for HF NCORE is supported but not extensively tested yet)             |
|                                                                             |
 ----------------------------------------------------------------------------- 

 POTCAR:    PAW_PBE Al 04Jan2001                  
   VRHFIN =Al: s2p1                                                             
   LEXCH  = PE                                                                  
   EATOM  =    53.5387 eV,    3.9350 Ry                                         
                                                                                
   TITEL  = PAW_PBE Al 04Jan2001                                                
   LULTRA =        F    use ultrasoft PP ?                                      
   IUNSCR =        1    unscreen: 0-lin 1-nonlin 2-no                           
   RPACOR =    1.500    partial core radius                                     
   POMASS =   26.981; ZVAL   =    3.000    mass and valenz                      
   RCORE  =    1.900    outmost cutoff radius                                   
   RWIGS  =    2.650; RWIGS  =    1.402    wigner-seitz radius (au A)           
   ENMAX  =  240.300; ENMIN  =  180.225 eV                                      
   ICORE  =        2    local potential                                         
   LCOR   =        T    correct aug charges                                     
   LPAW   =        T    paw PP                                                  
   EAUG   =  291.052                                                            
   DEXC   =    0.000                                                            
   RMAX   =    1.939    core radius for proj-oper                               
   RAUG   =    1.300    factor for augmentation sphere                          
   RDEP   =    1.966    radius for radial grids                                 
   RDEPT  =    1.856    core radius for aug-charge                              
                                                                                
   Atomic configuration                                                         
    6 entries                                                                   
     n  l   j            E        occ.                                          
     1  0  0.50     -1511.1048   2.0000                                         
     2  0  0.50      -108.1629   2.0000                                         
     2  1  1.50       -69.6402   6.0000                                         
     3  0  0.50        -7.7528   2.0000                                         
     3  1  1.50        -2.7121   1.0000                                         
     3  2  2.50        -2.7212   0.0000                                         
   Description                                                                  
     l       E           TYP  RCUT    TYP  RCUT                                 
     0     -7.7528455     23  1.900                                             
     0     -3.3096929     23  1.900                                             
     1     -2.7120682     23  1.900                                             
     1     13.6058260     23  1.900                                             
     2     -2.7211652      7  1.900                                             
  local pseudopotential read in
  partial core-charges read in
  partial kinetic energy density read in
  atomic valenz-charges read in
  non local Contribution for L=           0  read in
    real space projection operators read in
  non local Contribution for L=           0  read in
    real space projection operators read in
  non local Contribution for L=           1  read in
    real space projection operators read in
  non local Contribution for L=           1  read in
    real space projection operators read in
    PAW grid and wavefunctions read in
 
   number of l-projection  operators is LMAX  =           4
   number of lm-projection operators is LMMAX =           8
 
 POTCAR:    PAW_PBE Nb_sv 25May2007               
   VRHFIN =Nb: 4p5s4d                                                           
   LEXCH  = PE                                                                  
   EATOM  =  1555.1913 eV,  114.3033 Ry                                         
                                                                                
   TITEL  = PAW_PBE Nb_sv 25May2007                                             
   LULTRA =        F    use ultrasoft PP ?                                      
   IUNSCR =        1    unscreen: 0-lin 1-nonlin 2-no                           
   RPACOR =    1.800    partial core radius                                     
   POMASS =   92.910; ZVAL   =   13.000    mass and valenz                      
   RCORE  =    2.400    outmost cutoff radius                                   
   RWIGS  =    2.400; RWIGS  =    1.270    wigner-seitz radius (au A)           
   ENMAX  =  293.235; ENMIN  =  219.927 eV                                      
   ICORE  =        3    local potential                                         
   LCOR   =        T    correct aug charges                                     
   LPAW   =        T    paw PP                                                  
   EAUG   =  455.659                                                            
   DEXC   =    0.000                                                            
   RMAX   =    2.456    core radius for proj-oper                               
   RAUG   =    1.300    factor for augmentation sphere                          
   RDEP   =    2.451    radius for radial grids                                 
   RDEPT  =    1.956    core radius for aug-charge                              
                                                                                
   Atomic configuration                                                         
   11 entries                                                                   
     n  l   j            E        occ.                                          
     1  0  0.50    -18805.2457   2.0000                                         
     2  0  0.50     -2630.2869   2.0000                                         
     2  1  1.50     -2348.4046   6.0000                                         
     3  0  0.50      -438.8757   2.0000                                         
     3  1  1.50      -346.7588   6.0000                                         
     3  2  2.50      -196.2560  10.0000                                         
     4  0  0.50       -58.3859   2.0000                                         
     5  0  0.50        -3.9816   1.0000                                         
     4  1  1.50       -34.5141   6.0000                                         
     4  2  2.50        -3.0408   4.0000                                         
     4  3  2.50        -1.3606   0.0000                                         
   Description                                                                  
     l       E           TYP  RCUT    TYP  RCUT                                 
     0    -58.3859094     23  2.200                                             
     0     -3.9816262     23  2.200                                             
     1    -34.5140738     23  2.200                                             
     1     13.6058260     23  2.200                                             
     2     -3.0408010     23  2.200                                             
     2     -0.1283038     23  2.200                                             
     3     -1.3605826     23  2.400                                             
  local pseudopotential read in
  partial core-charges read in
  partial kinetic energy density read in
  atomic valenz-charges read in
  non local Contribution for L=           0  read in
    real space projection operators read in
  non local Contribution for L=           0  read in
    real space projection operators read in
  non local Contribution for L=           1  read in
    real space projection operators read in
  non local Contribution for L=           1  read in
    real space projection operators read in
  non local Contribution for L=           2  read in
    real space projection operators read in
  non local Contribution for L=           2  read in
    real space projection operators read in
    PAW grid and wavefunctions read in
 
   number of l-projection  operators is LMAX  =           6
   number of lm-projection operators is LMMAX =          18
 
 POTCAR:    PAW_PBE Ta 17Jan2003                  
   VRHFIN =Ta:  6s5d                                                            
   LEXCH  = PE                                                                  
   EATOM  =   130.6506 eV,    9.6025 Ry                                         
                                                                                
   TITEL  = PAW_PBE Ta 17Jan2003                                                
   LULTRA =        F    use ultrasoft PP ?                                      
   IUNSCR =        1    unscreen: 0-lin 1-nonlin 2-no                           
   RPACOR =    2.330    partial core radius                                     
   POMASS =  180.948; ZVAL   =    5.000    mass and valenz                      
   RCORE  =    2.900    outmost cutoff radius                                   
   RWIGS  =    2.840; RWIGS  =    1.503    wigner-seitz radius (au A)           
   ENMAX  =  223.667; ENMIN  =  167.750 eV                                      
   RCLOC  =    2.205    cutoff for local pot                                    
   LCOR   =        T    correct aug charges                                     
   LPAW   =        T    paw PP                                                  
   EAUG   =  332.075                                                            
   DEXC   =    0.000                                                            
   RMAX   =    2.970    core radius for proj-oper                               
   RAUG   =    1.300    factor for augmentation sphere                          
   RDEP   =    3.060    radius for radial grids                                 
   RDEPT  =    2.354    core radius for aug-charge                              
                                                                                
   Atomic configuration                                                         
   16 entries                                                                   
     n  l   j            E        occ.                                          
     1  0  0.50    -67341.2807   2.0000                                         
     2  0  0.50    -11566.9376   2.0000                                         
     2  1  1.50    -10134.1182   6.0000                                         
     3  0  0.50     -2648.5620   2.0000                                         
     3  1  1.50     -2222.6012   6.0000                                         
     3  2  2.50     -1726.3120  10.0000                                         
     4  0  0.50      -538.6961   2.0000                                         
     4  1  1.50      -399.0129   6.0000                                         
     4  2  2.50      -220.3959  10.0000                                         
     4  3  3.50       -23.0374  14.0000                                         
     5  0  0.50       -71.2901   2.0000                                         
     5  1  1.50       -37.8225   6.0000                                         
     5  2  2.50        -2.6455   4.0000                                         
     6  0  0.50        -4.9623   1.0000                                         
     6  1  1.50        -1.3606   0.0000                                         
     5  3  2.50        -1.3606   0.0000                                         
   Description                                                                  
     l       E           TYP  RCUT    TYP  RCUT                                 
     2     -2.6455043     23  2.500                                             
     2     -0.6258895     23  2.500                                             
     0     -4.9622780     23  2.500                                             
     0      4.7531321     23  2.500                                             
     1     -1.3605826     23  2.900                                             
     1     27.2116520     23  2.900                                             
  local pseudopotential read in
  partial core-charges read in
  partial kinetic energy density read in
  atomic valenz-charges read in
  non local Contribution for L=           2  read in
    real space projection operators read in
  non local Contribution for L=           2  read in
    real space projection operators read in
  non local Contribution for L=           0  read in
    real space projection operators read in
  non local Contribution for L=           0  read in
    real space projection operators read in
  non local Contribution for L=           1  read in
    real space projection operators read in
  non local Contribution for L=           1  read in
    real space projection operators read in
    PAW grid and wavefunctions read in
 
   number of l-projection  operators is LMAX  =           6
   number of lm-projection operators is LMMAX =          18
 
 POTCAR:    PAW_PBE Ti 08Apr2002                  
   VRHFIN =Ti: d3 s1                                                            
   LEXCH  = PE                                                                  
   EATOM  =    94.7928 eV,    6.9671 Ry                                         
                                                                                
   TITEL  = PAW_PBE Ti 08Apr2002                                                
   LULTRA =        F    use ultrasoft PP ?                                      
   IUNSCR =        1    unscreen: 0-lin 1-nonlin 2-no                           
   RPACOR =    2.200    partial core radius                                     
   POMASS =   47.880; ZVAL   =    4.000    mass and valenz                      
   RCORE  =    2.800    outmost cutoff radius                                   
   RWIGS  =    2.500; RWIGS  =    1.323    wigner-seitz radius (au A)           
   ENMAX  =  178.330; ENMIN  =  133.747 eV                                      
   RCLOC  =    2.215    cutoff for local pot                                    
   LCOR   =        T    correct aug charges                                     
   LPAW   =        T    paw PP                                                  
   EAUG   =  328.883                                                            
   DEXC   =    0.000                                                            
   RMAX   =    2.868    core radius for proj-oper                               
   RAUG   =    1.300    factor for augmentation sphere                          
   RDEP   =    2.885    radius for radial grids                                 
   RDEPT  =    2.320    core radius for aug-charge                              
                                                                                
   Atomic configuration                                                         
    9 entries                                                                   
     n  l   j            E        occ.                                          
     1  0  0.50     -4865.3608   2.0000                                         
     2  0  0.50      -533.1367   2.0000                                         
     2  1  1.50      -440.5031   6.0000                                         
     3  0  0.50       -59.3186   2.0000                                         
     3  1  1.50       -35.7012   6.0000                                         
     3  2  2.50        -1.9157   3.0000                                         
     4  0  0.50        -3.7291   1.0000                                         
     4  1  1.50        -4.0817   0.0000                                         
     4  3  2.50        -1.3606   0.0000                                         
   Description                                                                  
     l       E           TYP  RCUT    TYP  RCUT                                 
     2     -1.9156924     23  2.800                                             
     2     -0.4062961     23  2.800                                             
     0     -3.7290832     23  2.800                                             
     0     20.4087390     23  2.800                                             
     1     -5.4423304     23  2.800                                             
  local pseudopotential read in
  partial core-charges read in
  partial kinetic energy density read in
  atomic valenz-charges read in
  non local Contribution for L=           2  read in
    real space projection operators read in
  non local Contribution for L=           2  read in
    real space projection operators read in
  non local Contribution for L=           0  read in
    real space projection operators read in
  non local Contribution for L=           0  read in
    real space projection operators read in
  non local Contribution for L=           1  read in
    real space projection operators read in
    PAW grid and wavefunctions read in
 
   number of l-projection  operators is LMAX  =           5
   number of lm-projection operators is LMMAX =          15
 
 POTCAR:   PAW_PBE Zr 08Apr2002                   
   VRHFIN =Zr: 5s4d5p                                                           
   LEXCH  = PE                                                                  
   EATOM  =    77.8472 eV,    5.7216 Ry                                         
                                                                                
   TITEL  = PAW_PBE Zr 08Apr2002                                                
   LULTRA =        F    use ultrasoft PP ?                                      
   IUNSCR =        1    unscreen: 0-lin 1-nonlin 2-no                           
   RPACOR =    2.200    partial core radius                                     
   POMASS =   91.224; ZVAL   =    4.000    mass and valenz                      
   RCORE  =    3.000    outmost cutoff radius                                   
   RWIGS  =    3.070; RWIGS  =    1.625    wigner-seitz radius (au A)           
   ENMAX  =  154.632; ENMIN  =  115.974 eV                                      
   RCLOC  =    2.213    cutoff for local pot                                    
   LCOR   =        T    correct aug charges                                     
   LPAW   =        T    paw PP                                                  
   EAUG   =  243.217                                                            
   DEXC   =    -.082                                                            
   RMAX   =    3.708    core radius for proj-oper                               
   RAUG   =    1.300    factor for augmentation sphere                          
   RDEP   =    3.146    radius for radial grids                                 
   QCUT   =   -3.371; QGAM   =    6.742    optimization parameters              
                                                                                
   Description                                                                  
     l     E      TYP  RCUT    TYP  RCUT                                        
     2   .000     23  3.000                                                     
     2   .000     23  3.000                                                     
     0   .000     23  3.000                                                     
     0  2.000     23  3.000                                                     
     1  -.400     23  3.000                                                     
     3   .000      7   .000                                                     
  local pseudopotential read in
  partial core-charges read in
  atomic valenz-charges read in
  non local Contribution for L=           2  read in
    real space projection operators read in
  non local Contribution for L=           2  read in
    real space projection operators read in
  non local Contribution for L=           0  read in
    real space projection operators read in
  non local Contribution for L=           0  read in
    real space projection operators read in
  non local Contribution for L=           1  read in
    real space projection operators read in
    PAW grid and wavefunctions read in
 
   number of l-projection  operators is LMAX  =           5
   number of lm-projection operators is LMMAX =          15
 
 POTCAR:    PAW_PBE O 08Apr2002                   
   VRHFIN =O: s2p4                                                              
   LEXCH  = PE                                                                  
   EATOM  =   432.3788 eV,   31.7789 Ry                                         
                                                                                
   TITEL  = PAW_PBE O 08Apr2002                                                 
   LULTRA =        F    use ultrasoft PP ?                                      
   IUNSCR =        1    unscreen: 0-lin 1-nonlin 2-no                           
   RPACOR =    1.200    partial core radius                                     
   POMASS =   16.000; ZVAL   =    6.000    mass and valenz                      
   RCORE  =    1.520    outmost cutoff radius                                   
   RWIGS  =    1.550; RWIGS  =    0.820    wigner-seitz radius (au A)           
   ENMAX  =  400.000; ENMIN  =  300.000 eV                                      
   ICORE  =        2    local potential                                         
   LCOR   =        T    correct aug charges                                     
   LPAW   =        T    paw PP                                                  
   EAUG   =  605.392                                                            
   DEXC   =    0.000                                                            
   RMAX   =    1.553    core radius for proj-oper                               
   RAUG   =    1.300    factor for augmentation sphere                          
   RDEP   =    1.550    radius for radial grids                                 
   RDEPT  =    1.329    core radius for aug-charge                              
                                                                                
   Atomic configuration                                                         
    4 entries                                                                   
     n  l   j            E        occ.                                          
     1  0  0.50      -514.6923   2.0000                                         
     2  0  0.50       -23.9615   2.0000                                         
     2  1  0.50        -9.0305   4.0000                                         
     3  2  1.50        -9.5241   0.0000                                         
   Description                                                                  
     l       E           TYP  RCUT    TYP  RCUT                                 
     0    -23.9615318     23  1.200                                             
     0     -9.5240782     23  1.200                                             
     1     -9.0304911     23  1.520                                             
     1      8.1634956     23  1.520                                             
     2     -9.5240782      7  1.500                                             
  local pseudopotential read in
  partial core-charges read in
  partial kinetic energy density read in
  kinetic energy density of atom read in
  atomic valenz-charges read in
  non local Contribution for L=           0  read in
    real space projection operators read in
  non local Contribution for L=           0  read in
    real space projection operators read in
  non local Contribution for L=           1  read in
    real space projection operators read in
  non local Contribution for L=           1  read in
    real space projection operators read in
    PAW grid and wavefunctions read in
 
   number of l-projection  operators is LMAX  =           4
   number of lm-projection operators is LMMAX =           8
 

 ----------------------------------------------------------------------------- 
|                                                                             |
|  ADVICE TO THIS USER RUNNING 'VASP/VAMP'   (HEAR YOUR MASTER'S VOICE ...):  |
|                                                                             |
|      You have a (more or less) 'large supercell' and for larger cells       |
|      it might be more efficient to use real space projection opertators     |
|      So try LREAL= Auto  in the INCAR   file.                               |
|      Mind: At the moment your POTCAR file does not contain real space       |
|       projectors, and has to be modified,  BUT if you                       |
|      want to do an extremely  accurate calculation you might also keep the  |
|      reciprocal projection scheme          (i.e. LREAL=.FALSE.)             |
|                                                                             |
 ----------------------------------------------------------------------------- 

 WARNING: PSMAXN for non-local potential too small
          PSMAXN should be >   12.5490833729506       NTYP=           5
  PAW_PBE Al 04Jan2001                  :
 energy of atom  1       EATOM=  -53.5387
 kinetic energy error for atom=    0.0002 (will be added to EATOM!!)
  PAW_PBE Nb_sv 25May2007               :
 energy of atom  2       EATOM=-1555.1913
 kinetic energy error for atom=    0.0037 (will be added to EATOM!!)
  PAW_PBE Ta 17Jan2003                  :
 energy of atom  3       EATOM= -130.6506
 kinetic energy error for atom=    0.0004 (will be added to EATOM!!)
  PAW_PBE Ti 08Apr2002                  :
 energy of atom  4       EATOM=  -94.7928
 kinetic energy error for atom=    0.0001 (will be added to EATOM!!)
 PAW_PBE Zr 08Apr2002                   :
 energy of atom  5       EATOM=  -77.8472
 kinetic energy error for atom=    0.0001 (will be added to EATOM!!)
  PAW_PBE O 08Apr2002                   :
 energy of atom  6       EATOM= -432.3788
 kinetic energy error for atom=    0.0168 (will be added to EATOM!!)
 
 
 POSCAR: Al Nb Ta Ti Zr                          
  positions in direct lattice
  velocities in cartesian coordinates
 exchange correlation table for  LEXCH =        8
   RHO(1)=    0.500       N(1)  =     2000
   RHO(2)=  100.500       N(2)  =     4000
 


--------------------------------------------------------------------------------------------------------


 ion  position               nearest neighbor table
   1  0.623  0.867  0.376-  34 2.83  25 2.88  24 2.88   9 2.88  13 2.90   4 2.91  61 2.93  15 3.16
                            41 3.35  17 3.40
   2  0.622  0.390  0.546-  31 2.76  14 2.76  23 2.77  26 2.77  33 2.81   7 2.86  10 2.88  62 2.97
                            18 3.05  16 3.15  17 3.17  42 3.34   3 3.34
   3  0.616  0.644  0.628-  32 2.74  14 2.84  23 2.90  33 2.91   8 2.91  27 2.96  26 2.97  45 3.16
                             2 3.34
   4  0.618  0.084  0.450-  31 2.80  24 2.86  34 2.87  13 2.88   1 2.91  10 2.91  25 2.92   7 2.92
                            62 2.99  12 3.13  28 3.16  46 3.24
   5  0.978  0.641  0.555-  30 2.76  27 2.81  42 2.93  56 2.96  54 2.97  52 3.00  59 3.03  58 3.07
                            63 3.10  47 3.15  57 3.34
   6  0.980  0.121  0.378-  29 2.80  28 2.80  53 2.91  41 2.96  51 3.05  55 3.05  60 3.08  57 3.37

   7  0.729  0.343  0.458-  28 2.77  29 2.83  31 2.85   2 2.86  17 2.89  11 2.90   4 2.92  62 3.02
                            63 3.07  42 3.07
   8  0.726  0.904  0.620-  30 2.62  32 2.72  12 2.73  27 2.74  18 2.80   3 2.91  64 3.09  62 3.13

   9  0.517  0.608  0.367-  35 2.84  15 2.85  17 2.87   1 2.88  11 2.89  61 2.95  43 3.10
  10  0.515  0.132  0.540-  18 2.78  36 2.78  16 2.81  12 2.86   2 2.88   4 2.91  31 2.95  46 2.96
                            62 3.08  44 3.14
  11  0.618  0.343  0.369-  24 2.75  34 2.83  31 2.87   9 2.89   7 2.90  61 2.96  43 3.27
  12  0.621  0.875  0.537-  13 2.68  32 2.70   8 2.73  23 2.79  25 2.80  10 2.86  33 2.92  62 2.92
                             4 3.13  44 3.39
  13  0.742  0.843  0.462-  12 2.68  17 2.87  30 2.87   4 2.88   1 2.90  28 2.94  63 2.98  23 2.98
                            41 3.05  57 3.27  62 3.45
  14  0.741  0.408  0.626-  27 2.72   2 2.76  42 2.81  18 2.82   3 2.84  64 2.98  58 3.12
  15  0.394  0.847  0.369-  22 2.68  19 2.76  25 2.83  34 2.84   9 2.85  39 2.98   1 3.16  46 3.43

  16  0.394  0.368  0.542-  21 2.64  20 2.65  26 2.72  10 2.81  33 2.85  31 2.87  37 2.89  40 3.02
                             2 3.15
  17  0.619  0.602  0.458-  23 2.80  25 2.81  33 2.84  31 2.85   9 2.87  13 2.87   7 2.89  61 2.95
                            35 3.03   2 3.17   1 3.40  63 3.44
  18  0.629  0.161  0.622-  26 2.77  10 2.78  62 2.80   8 2.80  14 2.82  32 2.85   2 3.05  36 3.18
                            64 3.27
  19  0.279  0.834  0.451-  15 2.76  35 2.94  46 2.96  39 2.97  25 2.99  44 3.00  60 3.07  51 3.08
                            47 3.12  56 3.20
  20  0.283  0.372  0.621-  67 2.26  16 2.65  36 2.90  26 2.99  21 3.02  52 3.03  40 3.05  45 3.07
                            59 3.07  48 3.15
  21  0.281  0.591  0.542-  16 2.64  59 2.87  45 2.93  52 2.99  35 3.00  44 3.00  20 3.02  33 3.03
                            37 3.06  47 3.12  56 3.16
  22  0.283  0.077  0.361-  15 2.68  46 2.97  43 2.97  34 2.99  51 3.02  55 3.10  60 3.10
  23  0.732  0.632  0.541-  27 2.69   2 2.77  30 2.77  12 2.79  17 2.80   3 2.90  13 2.98  42 2.99
                            63 2.99
  24  0.740  0.115  0.366-  29 2.73  11 2.75  28 2.85   4 2.86   1 2.88  41 3.00
  25  0.496  0.836  0.458-  35 2.78  12 2.80  17 2.81  15 2.83   1 2.88   4 2.92  19 2.99  46 2.99
                            44 2.99  33 3.06
  26  0.500  0.383  0.625-  16 2.72  18 2.77   2 2.77  36 2.87   3 2.97  20 2.99  45 3.03
  27  0.830  0.661  0.625-  23 2.69  14 2.72   8 2.74  58 2.78   5 2.81  30 2.85   3 2.96  54 3.11
                            42 3.47
  28  0.847  0.110  0.455-  62 2.76   7 2.77   6 2.80  24 2.85  57 2.90  13 2.94  53 2.98  29 3.15
                             4 3.16  50 3.22  41 3.36
  29  0.852  0.349  0.376-  24 2.73   6 2.80   7 2.83  53 2.94  61 2.98  49 3.07  28 3.15  63 3.25

  30  0.851  0.864  0.550-   8 2.62   5 2.76  23 2.77  27 2.85  13 2.87  54 2.90  57 2.94  62 2.99
                            50 3.08
  31  0.522  0.339  0.461-   2 2.76   4 2.80  17 2.85   7 2.85  35 2.86  16 2.87  11 2.87  46 2.95
                            10 2.95  43 3.11
  32  0.528  0.901  0.622-  65 2.00  12 2.70   8 2.72   3 2.74  36 2.76  18 2.85  44 2.98  45 3.07

  33  0.500  0.625  0.541-   2 2.81  17 2.84  16 2.85  35 2.86   3 2.91  12 2.92  44 2.93  45 2.96
                            21 3.03  25 3.06
  34  0.499  0.102  0.365-  11 2.83   1 2.83  15 2.84   4 2.87  43 2.91  46 2.98  22 2.99
  35  0.400  0.580  0.451-  25 2.78   9 2.84  31 2.86  33 2.86  37 2.88  39 2.93  19 2.94  21 3.00
                            17 3.03  43 3.08
  36  0.399  0.121  0.622-  67 2.04  65 2.17  32 2.76  10 2.78  26 2.87  38 2.89  20 2.90  40 2.93
                            44 3.17  18 3.18
  37  0.255  0.366  0.464-  35 2.88  16 2.89  47 3.02  60 3.04  43 3.05  21 3.06  55 3.08  46 3.08
                            52 3.13  40 3.22  39 3.39
  38  0.240  0.924  0.628-  65 2.03  67 2.13  56 2.88  36 2.89  44 2.96  40 2.98  59 3.05  48 3.14
                            45 3.28  54 3.34
  39  0.252  0.614  0.376-  35 2.93  19 2.97  15 2.98  47 3.07  43 3.07  51 3.07  55 3.08  37 3.39
                            49 3.53
  40  0.246  0.136  0.549-  67 2.44  36 2.93  38 2.98  16 3.02  20 3.05  60 3.07  44 3.08  52 3.08
                            56 3.15  46 3.22  37 3.22  48 3.22  50 3.48
  41  0.865  0.859  0.370-   6 2.96  24 3.00  61 3.05  13 3.05  57 3.06  49 3.12   1 3.35  28 3.36
                            51 3.49  63 3.53
  42  0.864  0.384  0.545-  14 2.81   5 2.93  23 2.99  62 3.00   7 3.07  58 3.10  63 3.12  50 3.16
                            53 3.20  64 3.33   2 3.34  52 3.43  27 3.47
  43  0.381  0.352  0.373-  34 2.91  22 2.97  37 3.05  39 3.07  35 3.08   9 3.10  31 3.11  55 3.26
                            11 3.27  46 3.29
  44  0.375  0.873  0.547-  65 2.44  33 2.93  38 2.96  32 2.98  25 2.99  19 3.00  21 3.00  40 3.08
                            45 3.13  10 3.14  36 3.17  56 3.30  46 3.35  12 3.39
  45  0.386  0.655  0.631-  65 2.32  21 2.93  33 2.96  26 3.03  20 3.07  32 3.07  44 3.13   3 3.16
                            59 3.25  38 3.28
  46  0.384  0.104  0.456-  31 2.95  10 2.96  19 2.96  22 2.97  34 2.98  25 2.99  37 3.08  40 3.22
                             4 3.24  60 3.27  43 3.29  44 3.35  15 3.43
  47  0.117  0.611  0.465-  37 3.02  39 3.07  19 3.12  21 3.12  56 3.12  53 3.14  49 3.15   5 3.15
                            57 3.17  52 3.18  63 3.42  51 3.52  55 3.80
  48  0.100  0.182  0.639-  66 2.08  67 2.17  50 3.05  38 3.14  20 3.15  52 3.16  58 3.18  40 3.22
                            64 3.26  54 3.26
  49  0.996  0.593  0.368-  63 3.05  29 3.07  41 3.12  47 3.15  51 3.16  55 3.23  53 3.44  39 3.53
                            61 3.65  57 3.82
  50  0.994  0.112  0.545-  48 3.05  30 3.08  64 3.10  54 3.15  57 3.16  42 3.16  52 3.16  56 3.20
                            28 3.22  53 3.29  60 3.36  40 3.48  62 3.53
  51  0.119  0.872  0.375-  60 3.00  22 3.02   6 3.05  39 3.07  19 3.08  57 3.16  49 3.16  41 3.49
                            47 3.52
  52  0.113  0.395  0.552-  21 2.99   5 3.00  20 3.03  59 3.04  40 3.08  37 3.13  48 3.16  50 3.16
                            47 3.18  53 3.20  58 3.31  42 3.43
  53  1.000  0.331  0.453-   6 2.91  29 2.94  28 2.98  60 3.06  63 3.08  55 3.09  47 3.14  52 3.20
                            42 3.20  50 3.29  49 3.44
  54  1.000  0.876  0.625-  30 2.90   5 2.97  56 2.98  27 3.11  59 3.13  50 3.15  64 3.26  48 3.26
                            38 3.34
  55  0.145  0.332  0.368-   6 3.05  37 3.08  39 3.08  53 3.09  22 3.10  49 3.23  60 3.24  43 3.26
                            47 3.80
  56  0.136  0.848  0.542-  38 2.88   5 2.96  54 2.98  59 3.04  57 3.04  47 3.12  40 3.15  21 3.16
                            50 3.20  19 3.20  44 3.30  60 3.43
  57  0.979  0.876  0.465-  28 2.90  30 2.94  56 3.04  41 3.06  63 3.11  60 3.13  51 3.16  50 3.16
                            47 3.17  13 3.27   5 3.34   6 3.37  49 3.82
  58  0.963  0.449  0.643-  66 2.08  27 2.78   5 3.07  42 3.10  14 3.12  64 3.14  48 3.18  59 3.20
                            52 3.31
  59  0.152  0.633  0.622-  21 2.87   5 3.03  56 3.04  52 3.04  38 3.05  20 3.07  54 3.13  58 3.20
                            45 3.25
  60  0.147  0.092  0.451-  51 3.00  37 3.04  53 3.06  19 3.07  40 3.07   6 3.08  22 3.10  57 3.13
                            55 3.24  46 3.27  50 3.36  56 3.43
  61  0.731  0.606  0.367-   1 2.93  17 2.95   9 2.95  11 2.96  29 2.98  41 3.05  63 3.17  49 3.65

  62  0.739  0.130  0.538-  28 2.76  18 2.80  12 2.92   2 2.97   4 2.99  30 2.99  42 3.00   7 3.02
                            10 3.08   8 3.13  64 3.21  13 3.45  50 3.53
  63  0.869  0.592  0.458-  13 2.98  23 2.99  49 3.05   7 3.07  53 3.08   5 3.10  57 3.11  42 3.12
                            61 3.17  29 3.25  47 3.42  17 3.44  41 3.53
  64  0.865  0.154  0.635-  66 2.14  14 2.98   8 3.09  50 3.10  58 3.14  62 3.21  48 3.26  54 3.26
                            18 3.27  42 3.33
  65  0.385  0.897  0.635-  32 2.00  38 2.03  36 2.17  45 2.32  44 2.44
  66  0.978  0.254  0.676-  58 2.08  48 2.08  64 2.14
  67  0.255  0.145  0.637-  36 2.04  38 2.13  48 2.17  20 2.26  40 2.44
 
  LATTYP: Found a simple orthorhombic cell.
 ALAT       =     9.5644817352
 B/A-ratio  =     1.4398428730
 C/A-ratio  =     2.8922184390
  
  Lattice vectors:
  
 A1 = (   0.0000000000,  -9.5644817352,   0.0000000000)
 A2 = ( -13.7713508606,   0.0000000000,   0.0000000000)
 A3 = (   0.0000000000,   0.0000000000, -27.6625704340)


Analysis of symmetry for initial positions (statically):
=====================================================================
 Subroutine PRICEL returns:
 Original cell was already a primitive cell.
 

 Routine SETGRP: Setting up the symmetry group for a 
 simple orthorhombic supercell.


 Subroutine GETGRP returns: Found  1 space group operations
 (whereof  1 operations were pure point group operations)
 out of a pool of  8 trial point group operations.


The static configuration has the point symmetry C_1 .


Analysis of symmetry for dynamics (positions and initial velocities):
=====================================================================
 Subroutine PRICEL returns:
 Original cell was already a primitive cell.
 

 Routine SETGRP: Setting up the symmetry group for a 
 simple orthorhombic supercell.


 Subroutine GETGRP returns: Found  1 space group operations
 (whereof  1 operations were pure point group operations)
 out of a pool of  8 trial point group operations.


The dynamic configuration has the point symmetry C_1 .


Analysis of constrained symmetry for selective dynamics:
=====================================================================
 Subroutine PRICEL returns:
 Original cell was already a primitive cell.
 

 Routine SETGRP: Setting up the symmetry group for a 
 simple orthorhombic supercell.


 Subroutine GETGRP returns: Found  1 space group operations
 (whereof  1 operations were pure point group operations)
 out of a pool of  8 trial point group operations.


The constrained configuration has the point symmetry C_1 .


 Subroutine INISYM returns: Found  1 space group operations
 (whereof  1 operations are pure point group operations),
 and found     1 'primitive' translations

 
 
 KPOINTS: k-points                                

Automatic generation of k-mesh.
Space group operators:
 irot       det(A)        alpha          n_x          n_y          n_z        tau_x        tau_y        tau_z
    1     1.000000     0.000000     1.000000     0.000000     0.000000     0.000000     0.000000     0.000000
 
 Subroutine IBZKPT returns following result:
 ===========================================
 
 Found      5 irreducible k-points:
 
 Following reciprocal coordinates:
            Coordinates               Weight
  0.000000  0.000000  0.000000      1.000000
  0.333333  0.000000  0.000000      2.000000
  0.000000  0.333333  0.000000      2.000000
  0.333333  0.333333  0.000000      2.000000
 -0.333333  0.333333  0.000000      2.000000
 
 Following cartesian coordinates:
            Coordinates               Weight
  0.000000  0.000000  0.000000      1.000000
  0.024205  0.000000  0.000000      2.000000
  0.000000  0.034851  0.000000      2.000000
  0.024205  0.034851  0.000000      2.000000
 -0.024205  0.034851  0.000000      2.000000
 


--------------------------------------------------------------------------------------------------------




 Dimension of arrays:
   k-points           NKPTS =      5   k-points in BZ     NKDIM =      5   number of bands    NBANDS=    218
   number of dos      NEDOS =    301   number of ions     NIONS =     67
   non local maximal  LDIM  =      6   non local SUM 2l+1 LMDIM =     18
   total plane-waves  NPLWV = 846720
   max r-space proj   IRMAX =      1   max aug-charges    IRDMAX=  25433
   dimension x,y,z NGX =    84 NGY =   60 NGZ =  168
   dimension x,y,z NGXF=   168 NGYF=  120 NGZF=  336
   support grid    NGXF=   168 NGYF=  120 NGZF=  336
   ions per type =               6  10   4  18  26   3
 NGX,Y,Z   is equivalent  to a cutoff of  10.14, 10.43, 10.10 a.u.
 NGXF,Y,Z  is equivalent  to a cutoff of  20.28, 20.86, 20.19 a.u.


 I would recommend the setting:
   dimension x,y,z NGX =    83 NGY =   57 NGZ =  166
 SYSTEM =  (110) surface                           
 POSCAR =  Al Nb Ta Ti Zr                          

 Startparameter for this run:
   NWRITE =      2    write-flag & timer
   PREC   = normal    normal or accurate (medium, high low for compatibility)
   ISTART =      0    job   : 0-new  1-cont  2-samecut
   ICHARG =      2    charge: 1-file 2-atom 10-const
   ISPIN  =      1    spin polarized calculation?
   LNONCOLLINEAR =      F non collinear calculations
   LSORBIT =      F    spin-orbit coupling
   INIWAV =      1    electr: 0-lowe 1-rand  2-diag
   LASPH  =      F    aspherical Exc in radial PAW
   METAGGA=      F    non-selfconsistent MetaGGA calc.

 Electronic Relaxation 1
   ENCUT  =  600.0 eV  44.10 Ry    6.64 a.u.  27.50 19.10 55.25*2*pi/ulx,y,z
   ENINI  =  600.0     initial cutoff
   ENAUG  =  605.4 eV  augmentation charge cutoff
   NELM   =     60;   NELMIN=  2; NELMDL= -5     # of ELM steps 
   EDIFF  = 0.1E-03   stopping-criterion for ELM
   LREAL  =      F    real-space projection
   NLSPLINE    = F    spline interpolate recip. space projectors
   LCOMPAT=      F    compatible to vasp.4.4
   GGA_COMPAT  = T    GGA compatible to vasp.4.4-vasp.4.6
   LMAXPAW     = -100 max onsite density
   LMAXMIX     =    2 max onsite mixed and CHGCAR
   VOSKOWN=      0    Vosko Wilk Nusair interpolation
   ROPT   =    0.00000   0.00000   0.00000   0.00000
   ROPT   =    0.00000   0.00000
 Ionic relaxation
   EDIFFG = -.1E-01   stopping-criterion for IOM
   NSW    =    150    number of steps for IOM
   NBLOCK =      1;   KBLOCK =    150    inner block; outer block 
   IBRION =      2    ionic relax: 0-MD 1-quasi-New 2-CG
   NFREE  =      1    steps in history (QN), initial steepest desc. (CG)
   ISIF   =      2    stress and relaxation
   IWAVPR =     11    prediction:  0-non 1-charg 2-wave 3-comb
   ISYM   =      2    0-nonsym 1-usesym 2-fastsym
   LCORR  =      T    Harris-Foulkes like correction to forces

   POTIM  = 0.1000    time-step for ionic-motion
   TEIN   =    0.0    initial temperature
   TEBEG  =    0.0;   TEEND  =   0.0 temperature during run
   SMASS  =  -3.00    Nose mass-parameter (am)
   estimated Nose-frequenzy (Omega)   =  0.10E-29 period in steps =****** mass=  -0.433E-26a.u.
   SCALEE = 1.0000    scale energy and forces
   NPACO  =    256;   APACO  = 16.0  distance and # of slots for P.C.
   PSTRESS=    0.0 pullay stress

  Mass of Ions in am
   POMASS =  26.98 92.91180.95 47.88 91.22 16.00
  Ionic Valenz
   ZVAL   =   3.00 13.00  5.00  4.00  4.00  6.00
  Atomic Wigner-Seitz radii
   RWIGS  =  -1.00 -1.00 -1.00 -1.00 -1.00 -1.00
  virtual crystal weights 
   VCA    =   1.00  1.00  1.00  1.00  1.00  1.00
   NELECT =     362.0000    total number of electrons
   NUPDOWN=      -1.0000    fix difference up-down

 DOS related values:
   EMIN   =  10.00;   EMAX   =-10.00  energy-range for DOS
   EFERMI =   0.00
   ISMEAR =     2;   SIGMA  =   0.10  broadening in eV -4-tet -1-fermi 0-gaus

 Electronic relaxation 2 (details)
   IALGO  =     68    algorithm
   LDIAG  =      T    sub-space diagonalisation (order eigenvalues)
   LSUBROT=      F    optimize rotation matrix (better conditioning)
   TURBO    =      0    0=normal 1=particle mesh
   IRESTART =      0    0=no restart 2=restart with 2 vectors
   NREBOOT  =      0    no. of reboots
   NMIN     =      0    reboot dimension
   EREF     =   0.00    reference energy to select bands
   IMIX   =      4    mixing-type and parameters
     AMIX     =   0.40;   BMIX     =  1.00
     AMIX_MAG =   1.60;   BMIX_MAG =  1.00
     AMIN     =   0.10
     WC   =   100.;   INIMIX=   1;  MIXPRE=   1;  MAXMIX= -45

 Intra band minimization:
   WEIMIN = 0.0010     energy-eigenvalue tresh-hold
   EBREAK =  0.11E-06  absolut break condition
   DEPER  =   0.30     relativ break condition  

   TIME   =   0.40     timestep for ELM

  volume/ion in A,a.u.               =      54.38       366.99
  Fermi-wavevector in a.u.,A,eV,Ry     =   0.758230  1.432847  7.822158  0.574912
  Thomas-Fermi vector in A             =   1.856754
 
 Write flags
   LWAVE  =      F    write WAVECAR
   LCHARG =      F    write CHGCAR
   LVTOT  =      F    write LOCPOT, total local potential
   LVHAR  =      F    write LOCPOT, Hartree potential only
   LELF   =      F    write electronic localiz. function (ELF)
   LORBIT =      0    0 simple, 1 ext, 2 COOP (PROOUT)


 Dipole corrections
   LMONO  =      F    monopole corrections only (constant potential shift)
   LDIPOL =      F    correct potential (dipole corrections)
   IDIPOL =      0    1-x, 2-y, 3-z, 4-all directions 
   EPSILON=  1.0000000 bulk dielectric constant

 Exchange correlation treatment:
   GGA     =    --    GGA type
   LEXCH   =     8    internal setting for exchange type
   VOSKOWN=      0    Vosko Wilk Nusair interpolation
   LHFCALC =     F    Hartree Fock is set to
   LHFONE  =     F    Hartree Fock one center treatment
   AEXX    =    0.0000 exact exchange contribution

 Linear response parameters
   LEPSILON=     F    determine dielectric tensor
   LRPA    =     F    only Hartree local field effects (RPA)
   LNABLA  =     F    use nabla operator in PAW spheres
   LVEL    =     F    velocity operator in full k-point grid
   LINTERFAST=   F  fast interpolation
   KINTER  =     0    interpolate to denser k-point grid
   CSHIFT  =0.1000    complex shift for real part using Kramers Kronig
   OMEGAMAX=  -1.0    maximum frequency
   DEG_THRESHOLD= 0.2000000E-02 threshold for treating states as degnerate
   RTIME   =    0.100 relaxation time in fs

 Orbital magnetization related:
   ORBITALMAG=     F  switch on orbital magnetization
   LCHIMAG   =     F  perturbation theory with respect to B field
   DQ        =  0.001000  dq finite difference perturbation B field



--------------------------------------------------------------------------------------------------------


 conjugate gradient relaxation of ions
   using selective dynamics as specified on POSCAR
 charge density and potential will be updated during run
 non-spin polarized calculation
 RMM-DIIS sequential band-by-band and
  variant of blocked Davidson during initial phase
 perform sub-space diagonalisation
    before iterative eigenvector-optimisation
 modified Broyden-mixing scheme, WC =      100.0
 initial mixing is a Kerker type mixing with AMIX =  0.4000 and BMIX =      1.0000
 Hartree-type preconditioning will be used
 using additional bands           37
 reciprocal scheme for non local part
 use partial core corrections
 calculate Harris-corrections to forces 
   (improved forces if not selfconsistent)
 use gradient corrections 
 use of overlap-Matrix (Vanderbilt PP)
 Methfessel and Paxton  Order N= 2 SIGMA  =   0.10


--------------------------------------------------------------------------------------------------------


  energy-cutoff  :      600.00
  volume of cell :     3643.60
      direct lattice vectors                 reciprocal lattice vectors
    13.771350861  0.000000000  0.000000000     0.072614518  0.000000000  0.000000000
     0.000000000  9.564481735  0.000000000     0.000000000  0.104553496  0.000000000
     0.000000000  0.000000000 27.662570434     0.000000000  0.000000000  0.036149931

  length of vectors
    13.771350861  9.564481735 27.662570434     0.072614518  0.104553496  0.036149931


 
 k-points in units of 2pi/SCALE and weight: k-points                                
   0.00000000  0.00000000  0.00000000       0.111
   0.02420484  0.00000000  0.00000000       0.222
   0.00000000  0.03485117  0.00000000       0.222
   0.02420484  0.03485117  0.00000000       0.222
  -0.02420484  0.03485117  0.00000000       0.222
 
 k-points in reciprocal lattice and weights: k-points                                
   0.00000000  0.00000000  0.00000000       0.111
   0.33333333  0.00000000  0.00000000       0.222
   0.00000000  0.33333333  0.00000000       0.222
   0.33333333  0.33333333  0.00000000       0.222
  -0.33333333  0.33333333  0.00000000       0.222
 
 position of ions in fractional coordinates (direct lattice) 
   0.62276447  0.86746430  0.37590333
   0.62197585  0.39003825  0.54557592
   0.61599947  0.64442587  0.62835259
   0.61839700  0.08363760  0.44965952
   0.97816872  0.64144666  0.55475675
   0.97963780  0.12056648  0.37767599
   0.72857308  0.34338307  0.45816820
   0.72567745  0.90389972  0.62005968
   0.51739597  0.60805875  0.36719826
   0.51492579  0.13209461  0.53998474
   0.61811078  0.34297293  0.36889183
   0.62070687  0.87528813  0.53679899
   0.74231148  0.84345710  0.46199300
   0.74065988  0.40809346  0.62583899
   0.39405298  0.84738672  0.36896032
   0.39377104  0.36814591  0.54243391
   0.61928761  0.60162497  0.45752798
   0.62878313  0.16149799  0.62243765
   0.27944195  0.83362269  0.45088327
   0.28272811  0.37249728  0.62058292
   0.28058834  0.59096002  0.54182569
   0.28324246  0.07725573  0.36149931
   0.73223456  0.63195383  0.54104844
   0.74002355  0.11549973  0.36646499
   0.49591756  0.83582580  0.45790018
   0.49969057  0.38307615  0.62526686
   0.83016131  0.66101546  0.62459427
   0.84724605  0.11017048  0.45460239
   0.85243583  0.34907103  0.37639265
   0.85129011  0.86415960  0.55015983
   0.52175105  0.33942658  0.46105252
   0.52844136  0.90055010  0.62245895
   0.49958111  0.62462029  0.54084075
   0.49943882  0.10200214  0.36464270
   0.40016663  0.58028412  0.45130253
   0.39933576  0.12065810  0.62239919
   0.25505811  0.36595738  0.46399110
   0.23991416  0.92448515  0.62824686
   0.25182599  0.61397660  0.37627308
   0.24609340  0.13602895  0.54902712
   0.86539888  0.85904646  0.37036829
   0.86422619  0.38447802  0.54524969
   0.38059813  0.35186696  0.37331264
   0.37537801  0.87323200  0.54707952
   0.38639887  0.65466302  0.63100233
   0.38408008  0.10357511  0.45579618
   0.11657381  0.61110574  0.46457054
   0.10007283  0.18169917  0.63873912
   0.99629861  0.59295863  0.36811234
   0.99430111  0.11176740  0.54498220
   0.11869311  0.87196302  0.37467704
   0.11271497  0.39463844  0.55176138
   0.99977952  0.33051389  0.45306987
   0.99956727  0.87579410  0.62455638
   0.14482272  0.33176249  0.36788561
   0.13632154  0.84775684  0.54167271
   0.97888047  0.87608504  0.46520830
   0.96270070  0.44895029  0.64342657
   0.15190446  0.63258130  0.62214868
   0.14721048  0.09173214  0.45072276
   0.73135245  0.60578495  0.36679988
   0.73861354  0.12960209  0.53815847
   0.86923259  0.59196168  0.45825814
   0.86457923  0.15362383  0.63549124
   0.38527938  0.89722801  0.63490567
   0.97830586  0.25377805  0.67551925
   0.25549845  0.14482183  0.63717872
 
 position of ions in cartesian coordinates  (Angst):
   8.57630799  8.29684649 10.39845223
   8.56544761  3.73051370 15.09203222
   8.48314486  6.16359950 17.38184786
   8.51616202  0.79995025 12.43873821
  13.47070470  6.13510484 15.34599776
  13.49093588  1.15315590 10.44748880
  10.03343557  3.28428114 12.67411000
   9.99355882  8.64533239 17.15244463
   7.12524148  5.81576681 10.15764776
   7.09122365  1.26341648 14.93736578
   8.51222037  3.28035836 10.20449636
   8.54797216  8.37167737 14.84923988
  10.22263181  8.06723005 12.77991378
  10.19988704  3.90320248 17.31231523
   5.42664188  8.10481479 10.20639088
   5.42275914  3.52112488 15.00511634
   8.52842696  5.75423100 12.65640004
   8.65919306  1.54464457 17.21822521
   3.84829318  7.97316903 12.47259035
   3.89354794  3.56274345 17.16691862
   3.86408045  5.65222633 14.98829129
   3.90063135  0.73891098 10.00000000
  10.08385899  6.04431086 14.96679068
  10.19112400  1.10469510 10.13736353
   6.82945470  7.99424061 12.66669595
   6.88141416  3.66392484 17.29648869
  11.43244266  6.32227026 17.27788287
  11.66772263  1.05372358 12.57547056
  11.73919286  3.33868345 10.41198829
  11.72341485  8.26523871 15.21883513
   7.18521672  3.24643930 12.75389771
   7.27735144  8.61329502 17.21881442
   6.87990675  5.97416935 14.96104534
   6.87794726  0.97559764 10.08695433
   5.51083508  5.55011685 12.48418803
   5.49939280  1.15403219 17.21716156
   3.51249472  3.50019267 12.83518635
   3.30394204  8.84222130 17.37892291
   3.46798404  5.87236796 10.40868071
   3.38903852  1.30104639 15.18750137
  11.91771166  8.21633417 10.24533883
  11.90156209  3.67733296 15.08300790
   5.24135036  3.36542512 10.32678719
   5.16946228  8.35201149 15.13362573
   5.32123445  6.26151254 17.45514647
   5.28930157  0.99064225 12.60849381
   1.60537885  5.84490969 12.85121538
   1.37813802  1.73785835 17.66916585
  13.72037774  5.67134198 10.18293350
  13.69286947  1.06899729 15.07560849
   1.63456451  8.33987442 10.36453009
   1.55223743  3.77451214 15.26313798
  13.76831459  3.16119411 12.53307716
  13.76539160  8.37651667 17.27683497
   1.99440444  3.17313630 10.17666150
   1.87733179  8.10835479 14.98405957
  13.48050634  8.37929939 12.86885734
  13.25768907  4.29397687 17.79883277
   2.09192957  6.05031233 17.21023176
   2.02728715  0.87737042 12.46815015
  10.07171117  5.79401911 10.14662739
  10.17170624  1.23957680 14.88684657
  11.97050705  5.66180669 12.67659812
  11.90642398  1.46933229 17.57932121
   5.30581748  8.58152089 17.56312287
  13.47259320  2.42725553 18.68659896
   3.51855881  1.38514570 17.62600121
 


--------------------------------------------------------------------------------------------------------


 k-point  1 :   0.0000 0.0000 0.0000  plane waves:  121663
 k-point  2 :   0.3333 0.0000 0.0000  plane waves:  121577
 k-point  3 :   0.0000 0.3333 0.0000  plane waves:  121622
 k-point  4 :   0.3333 0.3333 0.0000  plane waves:  121647
 k-point  5 :  -0.3333 0.3333 0.0000  plane waves:  121647

 maximum and minimum number of plane-waves per node :      2568     2510

 maximum number of plane-waves:    121663
 maximum index in each direction: 
   IXMAX=   27   IYMAX=   19   IZMAX=   55
   IXMIN=  -27   IYMIN=  -19   IZMIN=  -55

 WARNING: aliasing errors must be expected set NGX to 110 to avoid them
 WARNING: aliasing errors must be expected set NGY to  78 to avoid them
 WARNING: aliasing errors must be expected set NGZ to 222 to avoid them
 aliasing errors are usually negligible using standard VASP settings
 and one can safely disregard these warnings

 parallel 3D FFT for wavefunctions:
    minimum data exchange during FFTs selected (reduces bandwidth)
 parallel 3D FFT for charge:
    minimum data exchange during FFTs selected (reduces bandwidth)


 total amount of memory used by VASP on root node    77332. kBytes
========================================================================

   base      :      30000. kBytes
   nonl-proj :      13674. kBytes
   fftplans  :       3278. kBytes
   grid      :       7939. kBytes
   one-center:         31. kBytes
   wavefun   :      22410. kBytes
 
     INWAV:  cpu time    0.0000: real time    0.0000
 Broyden mixing: mesh for mixing (old mesh)
   NGX = 55   NGY = 39   NGZ =111
  (NGX  =168   NGY  =120   NGZ  =336)
  gives a total of 238095 points

 initial charge density was supplied:
 charge density of overlapping atoms calculated
 number of electron     362.0000000 magnetization 
 keeping initial charge density in first step


--------------------------------------------------------------------------------------------------------


 Maximum index for augmentation-charges         1033 (set IRDMAX)


--------------------------------------------------------------------------------------------------------


 First call to EWALD:  gamma=   0.115
 Maximum number of real-space cells 3x 4x 2
 Maximum number of reciprocal cells 3x 2x 5

 FEWALD executed in parallel
    FEWALD:  cpu time    0.0022: real time    0.0022


----------------------------------------- Iteration    1(   1)  ---------------------------------------


    POTLOK:  cpu time    0.0580: real time    0.0582
    SETDIJ:  cpu time    0.0124: real time    0.0125
     EDDAV:  cpu time    8.7003: real time    8.7112
       DOS:  cpu time    0.0014: real time    0.0014
    --------------------------------------------
      LOOP:  cpu time    8.7758: real time    8.7907

 eigenvalue-minimisations  :  2308
 total energy-change (2. order) : 0.4122698E+04  (-0.1321810E+05)
 number of electron     362.0000000 magnetization 
 augmentation part      362.0000000 magnetization 

 Free energy of the ion-electron system (eV)
  ---------------------------------------------------
  alpha Z        PSCENC =       541.01969910
  Ewald energy   TEWEN  =     75031.46924950
  -Hartree energ DENC   =    -94244.22546351
  -exchange      EXHF   =         0.00000000
  -V(xc)+E(xc)   XCENC  =     -3004.80773976
  PAW double counting   =     20478.92955384   -16393.09178658
  entropy T*S    EENTRO =         0.00344981
  eigenvalues    EBANDS =       290.31248646
  atomic energy  EATOM  =     21423.08850241
  Solvation  Ediel_sol  =         0.00000000
  ---------------------------------------------------
  free energy    TOTEN  =      4122.69795127 eV

  energy without entropy =     4122.69450146  energy(sigma->0) =     4122.69708881


--------------------------------------------------------------------------------------------------------




----------------------------------------- Iteration    1(   2)  ---------------------------------------


     EDDAV:  cpu time    9.0807: real time    9.0848
       DOS:  cpu time    0.0013: real time    0.0013
    --------------------------------------------
      LOOP:  cpu time    9.0833: real time    9.0886

 eigenvalue-minimisations  :  2460
 total energy-change (2. order) :-0.3791892E+04  (-0.3677373E+04)
 number of electron     362.0000000 magnetization 
 augmentation part      362.0000000 magnetization 

 Free energy of the ion-electron system (eV)
  ---------------------------------------------------
  alpha Z        PSCENC =       541.01969910
  Ewald energy   TEWEN  =     75031.46924950
  -Hartree energ DENC   =    -94244.22546351
  -exchange      EXHF   =         0.00000000
  -V(xc)+E(xc)   XCENC  =     -3004.80773976
  PAW double counting   =     20478.92955384   -16393.09178658
  entropy T*S    EENTRO =        -0.00506349
  eigenvalues    EBANDS =     -3501.57117985
  atomic energy  EATOM  =     21423.08850241
  Solvation  Ediel_sol  =         0.00000000
  ---------------------------------------------------
  free energy    TOTEN  =       330.80577166 eV

  energy without entropy =      330.81083515  energy(sigma->0) =      330.80703754


--------------------------------------------------------------------------------------------------------




----------------------------------------- Iteration    1(   3)  ---------------------------------------


     EDDAV:  cpu time   13.6185: real time   13.6269
       DOS:  cpu time    0.0012: real time    0.0012
    --------------------------------------------
      LOOP:  cpu time   13.6209: real time   13.6309

 eigenvalue-minimisations  :  4040
 total energy-change (2. order) :-0.8231451E+03  (-0.7998557E+03)
 number of electron     362.0000000 magnetization 
 augmentation part      362.0000000 magnetization 

 Free energy of the ion-electron system (eV)
  ---------------------------------------------------
  alpha Z        PSCENC =       541.01969910
  Ewald energy   TEWEN  =     75031.46924950
  -Hartree energ DENC   =    -94244.22546351
  -exchange      EXHF   =         0.00000000
  -V(xc)+E(xc)   XCENC  =     -3004.80773976
  PAW double counting   =     20478.92955384   -16393.09178658
  entropy T*S    EENTRO =         0.00202964
  eigenvalues    EBANDS =     -4324.72340593
  atomic energy  EATOM  =     21423.08850241
  Solvation  Ediel_sol  =         0.00000000
  ---------------------------------------------------
  free energy    TOTEN  =      -492.33936129 eV

  energy without entropy =     -492.34139093  energy(sigma->0) =     -492.33986870


--------------------------------------------------------------------------------------------------------




----------------------------------------- Iteration    1(   4)  ---------------------------------------


     EDDAV:  cpu time   12.1574: real time   12.1604
       DOS:  cpu time    0.0014: real time    0.0014
    --------------------------------------------
      LOOP:  cpu time   12.1599: real time   12.1646

 eigenvalue-minimisations  :  3544
 total energy-change (2. order) :-0.1056443E+03  (-0.1015622E+03)
 number of electron     362.0000000 magnetization 
 augmentation part      362.0000000 magnetization 

 Free energy of the ion-electron system (eV)
  ---------------------------------------------------
  alpha Z        PSCENC =       541.01969910
  Ewald energy   TEWEN  =     75031.46924950
  -Hartree energ DENC   =    -94244.22546351
  -exchange      EXHF   =         0.00000000
  -V(xc)+E(xc)   XCENC  =     -3004.80773976
  PAW double counting   =     20478.92955384   -16393.09178658
  entropy T*S    EENTRO =        -0.00900417
  eigenvalues    EBANDS =     -4430.35663403
  atomic energy  EATOM  =     21423.08850241
  Solvation  Ediel_sol  =         0.00000000
  ---------------------------------------------------
  free energy    TOTEN  =      -597.98362321 eV

  energy without entropy =     -597.97461903  energy(sigma->0) =     -597.98137216


--------------------------------------------------------------------------------------------------------




----------------------------------------- Iteration    1(   5)  ---------------------------------------


     EDDAV:  cpu time   13.7785: real time   13.7805
       DOS:  cpu time    0.0013: real time    0.0013
    CHARGE:  cpu time    0.2076: real time    0.2085
    MIXING:  cpu time    0.0066: real time    0.0070
    --------------------------------------------
      LOOP:  cpu time   13.9952: real time   14.0006

 eigenvalue-minimisations  :  4120
 total energy-change (2. order) :-0.1425383E+02  (-0.1388224E+02)
 number of electron     361.9999987 magnetization 
 augmentation part       43.5004849 magnetization 

 Broyden mixing:
  rms(total) = 0.61903E+01    rms(broyden)= 0.61903E+01
  rms(prec ) = 0.67785E+01
  weight for this iteration     100.00

 Free energy of the ion-electron system (eV)
  ---------------------------------------------------
  alpha Z        PSCENC =       541.01969910
  Ewald energy   TEWEN  =     75031.46924950
  -Hartree energ DENC   =    -94244.22546351
  -exchange      EXHF   =         0.00000000
  -V(xc)+E(xc)   XCENC  =     -3004.80773976
  PAW double counting   =     20478.92955384   -16393.09178658
  entropy T*S    EENTRO =        -0.00769676
  eigenvalues    EBANDS =     -4444.61176978
  atomic energy  EATOM  =     21423.08850241
  Solvation  Ediel_sol  =         0.00000000
  ---------------------------------------------------
  free energy    TOTEN  =      -612.23745154 eV

  energy without entropy =     -612.22975478  energy(sigma->0) =     -612.23552735


--------------------------------------------------------------------------------------------------------




----------------------------------------- Iteration    1(   6)  ---------------------------------------


    POTLOK:  cpu time    0.0550: real time    0.0550
    SETDIJ:  cpu time    0.0062: real time    0.0062
    EDDIAG:  cpu time    0.8090: real time    0.8125
  RMM-DIIS:  cpu time    8.8825: real time    8.8826
    ORTHCH:  cpu time    0.2172: real time    0.2278
       DOS:  cpu time    0.0013: real time    0.0013
    CHARGE:  cpu time    0.2025: real time    0.2025
    MIXING:  cpu time    0.0031: real time    0.0032
    --------------------------------------------
      LOOP:  cpu time   10.1788: real time   10.1958

 eigenvalue-minimisations  :  3597
 total energy-change (2. order) :-0.4757668E+02  (-0.1433883E+03)
 number of electron     361.9999992 magnetization 
 augmentation part       58.6721840 magnetization 

 Broyden mixing:
  rms(total) = 0.42363E+01    rms(broyden)= 0.42362E+01
  rms(prec ) = 0.54799E+01
  weight for this iteration     100.00

 eigenvalues of (default mixing * dielectric matrix)
  average eigenvalue GAMMA=   0.7248
  0.7248

 Free energy of the ion-electron system (eV)
  ---------------------------------------------------
  alpha Z        PSCENC =       541.01969910
  Ewald energy   TEWEN  =     75031.46924950
  -Hartree energ DENC   =    -94954.29692761
  -exchange      EXHF   =         0.00000000
  -V(xc)+E(xc)   XCENC  =     -2990.47000755
  PAW double counting   =     24183.82885554   -20098.65430855
  entropy T*S    EENTRO =         0.00786975
  eigenvalues    EBANDS =     -3795.80706460
  atomic energy  EATOM  =     21423.08850241
  Solvation  Ediel_sol  =         0.00000000
  ---------------------------------------------------
  free energy    TOTEN  =      -659.81413202 eV

  energy without entropy =     -659.82200177  energy(sigma->0) =     -659.81609946


--------------------------------------------------------------------------------------------------------




----------------------------------------- Iteration    1(   7)  ---------------------------------------


    POTLOK:  cpu time    0.0491: real time    0.0491
    SETDIJ:  cpu time    0.0061: real time    0.0061
    EDDIAG:  cpu time    0.8153: real time    0.8180
  RMM-DIIS:  cpu time    6.0505: real time    6.0505
    ORTHCH:  cpu time    0.2270: real time    0.2287
       DOS:  cpu time    0.0014: real time    0.0014
    CHARGE:  cpu time    0.2067: real time    0.2067
    MIXING:  cpu time    0.0074: real time    0.0074
    --------------------------------------------
      LOOP:  cpu time    7.3649: real time    7.3719

 eigenvalue-minimisations  :  2415
 total energy-change (2. order) : 0.9575804E+02  (-0.3323674E+02)
 number of electron     361.9999997 magnetization 
 augmentation part       50.5929612 magnetization 

 Broyden mixing:
  rms(total) = 0.30431E+01    rms(broyden)= 0.30431E+01
  rms(prec ) = 0.42054E+01
  weight for this iteration     100.00

 eigenvalues of (default mixing * dielectric matrix)
  average eigenvalue GAMMA=   0.7425
  1.1277  0.3574

 Free energy of the ion-electron system (eV)
  ---------------------------------------------------
  alpha Z        PSCENC =       541.01969910
  Ewald energy   TEWEN  =     75031.46924950
  -Hartree energ DENC   =    -94540.31028936
  -exchange      EXHF   =         0.00000000
  -V(xc)+E(xc)   XCENC  =     -2992.13174535
  PAW double counting   =     24574.00292120   -20501.47204449
  entropy T*S    EENTRO =        -0.00675664
  eigenvalues    EBANDS =     -4099.71563134
  atomic energy  EATOM  =     21423.08850241
  Solvation  Ediel_sol  =         0.00000000
  ---------------------------------------------------
  free energy    TOTEN  =      -564.05609497 eV

  energy without entropy =     -564.04933833  energy(sigma->0) =     -564.05440581


--------------------------------------------------------------------------------------------------------




----------------------------------------- Iteration    1(   8)  ---------------------------------------


    POTLOK:  cpu time    0.0549: real time    0.0549
    SETDIJ:  cpu time    0.0203: real time    0.0203
    EDDIAG:  cpu time    0.8381: real time    0.8414
  RMM-DIIS:  cpu time    8.3453: real time    8.3478
    ORTHCH:  cpu time    0.2060: real time    0.2152
       DOS:  cpu time    0.0014: real time    0.0014
    CHARGE:  cpu time    0.2032: real time    0.2032
    MIXING:  cpu time    0.0030: real time    0.0066
    --------------------------------------------
      LOOP:  cpu time    9.6863: real time    9.7088

 eigenvalue-minimisations  :  3359
 total energy-change (2. order) :-0.3246737E+02  (-0.1856310E+02)
 number of electron     361.9999991 magnetization 
 augmentation part       50.4137256 magnetization 

 Broyden mixing:
  rms(total) = 0.30403E+01    rms(broyden)= 0.30403E+01
  rms(prec ) = 0.58681E+01
  weight for this iteration     100.00

 eigenvalues of (default mixing * dielectric matrix)
  average eigenvalue GAMMA=   0.6526
  1.3084  0.3830  0.2664

 Free energy of the ion-electron system (eV)
  ---------------------------------------------------
  alpha Z        PSCENC =       541.01969910
  Ewald energy   TEWEN  =     75031.46924950
  -Hartree energ DENC   =    -94614.48345510
  -exchange      EXHF   =         0.00000000
  -V(xc)+E(xc)   XCENC  =     -2990.75083374
  PAW double counting   =     25423.19395494   -21351.87080589
  entropy T*S    EENTRO =         0.00147894
  eigenvalues    EBANDS =     -4058.19125425
  atomic energy  EATOM  =     21423.08850241
  Solvation  Ediel_sol  =         0.00000000
  ---------------------------------------------------
  free energy    TOTEN  =      -596.52346409 eV

  energy without entropy =     -596.52494303  energy(sigma->0) =     -596.52383383


--------------------------------------------------------------------------------------------------------




----------------------------------------- Iteration    1(   9)  ---------------------------------------


    POTLOK:  cpu time    0.0502: real time    0.0504
    SETDIJ:  cpu time    0.0061: real time    0.0061
    EDDIAG:  cpu time    0.8211: real time    0.8315
  RMM-DIIS:  cpu time    8.6123: real time    8.6124
    ORTHCH:  cpu time    0.2246: real time    0.2278
       DOS:  cpu time    0.0012: real time    0.0012
    CHARGE:  cpu time    0.2014: real time    0.2014
    MIXING:  cpu time    0.0020: real time    0.0021
    --------------------------------------------
      LOOP:  cpu time    9.9238: real time    9.9398

 eigenvalue-minimisations  :  3495
 total energy-change (2. order) : 0.4991496E+02  (-0.6542644E+01)
 number of electron     361.9999989 magnetization 
 augmentation part       48.5923462 magnetization 

 Broyden mixing:
  rms(total) = 0.17546E+01    rms(broyden)= 0.17546E+01
  rms(prec ) = 0.22460E+01
  weight for this iteration     100.00

 eigenvalues of (default mixing * dielectric matrix)
  average eigenvalue GAMMA=   0.6344
  1.5425  0.4143  0.4143  0.1663

 Free energy of the ion-electron system (eV)
  ---------------------------------------------------
  alpha Z        PSCENC =       541.01969910
  Ewald energy   TEWEN  =     75031.46924950
  -Hartree energ DENC   =    -94664.31496042
  -exchange      EXHF   =         0.00000000
  -V(xc)+E(xc)   XCENC  =     -2988.89076060
  PAW double counting   =     25901.66249186   -21828.28600760
  entropy T*S    EENTRO =         0.00197119
  eigenvalues    EBANDS =     -3962.35869156
  atomic energy  EATOM  =     21423.08850241
  Solvation  Ediel_sol  =         0.00000000
  ---------------------------------------------------
  free energy    TOTEN  =      -546.60850612 eV

  energy without entropy =     -546.61047731  energy(sigma->0) =     -546.60899892


--------------------------------------------------------------------------------------------------------




----------------------------------------- Iteration    1(  10)  ---------------------------------------


    POTLOK:  cpu time    0.0506: real time    0.0506
    SETDIJ:  cpu time    0.0063: real time    0.0063
    EDDIAG:  cpu time    0.8217: real time    0.8233
  RMM-DIIS:  cpu time    7.9010: real time    7.9010
    ORTHCH:  cpu time    0.2210: real time    0.2264
       DOS:  cpu time    0.0014: real time    0.0014
    CHARGE:  cpu time    0.2025: real time    0.2025
    MIXING:  cpu time    0.0022: real time    0.0022
    --------------------------------------------
      LOOP:  cpu time    9.2084: real time    9.2180

 eigenvalue-minimisations  :  3199
 total energy-change (2. order) : 0.8281568E+01  (-0.2699019E+01)
 number of electron     361.9999993 magnetization 
 augmentation part       50.2911010 magnetization 

 Broyden mixing:
  rms(total) = 0.96509E+00    rms(broyden)= 0.96509E+00
  rms(prec ) = 0.11301E+01
  weight for this iteration     100.00

 eigenvalues of (default mixing * dielectric matrix)
  average eigenvalue GAMMA=   0.6443
  1.6054  0.5642  0.5642  0.3191  0.1684

 Free energy of the ion-electron system (eV)
  ---------------------------------------------------
  alpha Z        PSCENC =       541.01969910
  Ewald energy   TEWEN  =     75031.46924950
  -Hartree energ DENC   =    -94719.64586723
  -exchange      EXHF   =         0.00000000
  -V(xc)+E(xc)   XCENC  =     -2985.33125843
  PAW double counting   =     26518.94817965   -22440.28167301
  entropy T*S    EENTRO =         0.00408481
  eigenvalues    EBANDS =     -3907.59785514
  atomic energy  EATOM  =     21423.08850241
  Solvation  Ediel_sol  =         0.00000000
  ---------------------------------------------------
  free energy    TOTEN  =      -538.32693834 eV

  energy without entropy =     -538.33102315  energy(sigma->0) =     -538.32795954


--------------------------------------------------------------------------------------------------------




----------------------------------------- Iteration    1(  11)  ---------------------------------------


    POTLOK:  cpu time    0.0491: real time    0.0491
    SETDIJ:  cpu time    0.0061: real time    0.0061
    EDDIAG:  cpu time    0.8174: real time    0.8192
  RMM-DIIS:  cpu time    8.6567: real time    8.6568
    ORTHCH:  cpu time    0.2255: real time    0.2272
       DOS:  cpu time    0.0014: real time    0.0014
    CHARGE:  cpu time    0.2026: real time    0.2026
    MIXING:  cpu time    0.0022: real time    0.0022
    --------------------------------------------
      LOOP:  cpu time    9.9628: real time    9.9690

 eigenvalue-minimisations  :  3493
 total energy-change (2. order) :-0.3408490E+00  (-0.1903924E+01)
 number of electron     361.9999992 magnetization 
 augmentation part       51.4035581 magnetization 

 Broyden mixing:
  rms(total) = 0.88620E+00    rms(broyden)= 0.88620E+00
  rms(prec ) = 0.11523E+01
  weight for this iteration     100.00

 eigenvalues of (default mixing * dielectric matrix)
  average eigenvalue GAMMA=   0.6391
  1.6173  0.7307  0.7307  0.1642  0.3265  0.2653

 Free energy of the ion-electron system (eV)
  ---------------------------------------------------
  alpha Z        PSCENC =       541.01969910
  Ewald energy   TEWEN  =     75031.46924950
  -Hartree energ DENC   =    -94729.68617720
  -exchange      EXHF   =         0.00000000
  -V(xc)+E(xc)   XCENC  =     -2983.78075862
  PAW double counting   =     26822.80256499   -22740.63730548
  entropy T*S    EENTRO =        -0.01037437
  eigenvalues    EBANDS =     -3902.93318767
  atomic energy  EATOM  =     21423.08850241
  Solvation  Ediel_sol  =         0.00000000
  ---------------------------------------------------
  free energy    TOTEN  =      -538.66778734 eV

  energy without entropy =     -538.65741297  energy(sigma->0) =     -538.66519375


--------------------------------------------------------------------------------------------------------




----------------------------------------- Iteration    1(  12)  ---------------------------------------


    POTLOK:  cpu time    0.0494: real time    0.0494
    SETDIJ:  cpu time    0.0061: real time    0.0061
    EDDIAG:  cpu time    0.8166: real time    0.8238
  RMM-DIIS:  cpu time    8.6958: real time    8.6958
    ORTHCH:  cpu time    0.2251: real time    0.2268
       DOS:  cpu time    0.0014: real time    0.0014
    CHARGE:  cpu time    0.2011: real time    0.2011
    MIXING:  cpu time    0.0024: real time    0.0024
    --------------------------------------------
      LOOP:  cpu time    9.9993: real time   10.0108

 eigenvalue-minimisations  :  3521
 total energy-change (2. order) : 0.1355109E+01  (-0.7751243E+00)
 number of electron     361.9999993 magnetization 
 augmentation part       51.3082458 magnetization 

 Broyden mixing:
  rms(total) = 0.51140E+00    rms(broyden)= 0.51140E+00
  rms(prec ) = 0.67549E+00
  weight for this iteration     100.00

 eigenvalues of (default mixing * dielectric matrix)
  average eigenvalue GAMMA=   0.6589
  1.7119  1.1183  0.5724  0.4584  0.3573  0.1660  0.2280

 Free energy of the ion-electron system (eV)
  ---------------------------------------------------
  alpha Z        PSCENC =       541.01969910
  Ewald energy   TEWEN  =     75031.46924950
  -Hartree energ DENC   =    -94756.99582877
  -exchange      EXHF   =         0.00000000
  -V(xc)+E(xc)   XCENC  =     -2982.65508006
  PAW double counting   =     27075.93628275   -22990.69166900
  entropy T*S    EENTRO =        -0.00550380
  eigenvalues    EBANDS =     -3878.47833015
  atomic energy  EATOM  =     21423.08850241
  Solvation  Ediel_sol  =         0.00000000
  ---------------------------------------------------
  free energy    TOTEN  =      -537.31267801 eV

  energy without entropy =     -537.30717422  energy(sigma->0) =     -537.31130206


--------------------------------------------------------------------------------------------------------




----------------------------------------- Iteration    1(  13)  ---------------------------------------


    POTLOK:  cpu time    0.0490: real time    0.0490
    SETDIJ:  cpu time    0.0062: real time    0.0062
    EDDIAG:  cpu time    0.8198: real time    0.8225
  RMM-DIIS:  cpu time    8.7456: real time    8.7457
    ORTHCH:  cpu time    0.2255: real time    0.2268
       DOS:  cpu time    0.0015: real time    0.0015
    CHARGE:  cpu time    0.2013: real time    0.2013
    MIXING:  cpu time    0.0025: real time    0.0025
    --------------------------------------------
      LOOP:  cpu time   10.0530: real time   10.0597

 eigenvalue-minimisations  :  3550
 total energy-change (2. order) : 0.5331833E-01  (-0.5401094E+00)
 number of electron     361.9999993 magnetization 
 augmentation part       51.7086117 magnetization 

 Broyden mixing:
  rms(total) = 0.48290E+00    rms(broyden)= 0.48290E+00
  rms(prec ) = 0.64572E+00
  weight for this iteration     100.00

 eigenvalues of (default mixing * dielectric matrix)
[...]


    CHARGE:  cpu time    0.2015: real time    0.2015
    FORLOC:  cpu time    0.0199: real time    0.0199
    FORNL :  cpu time    8.6822: real time    8.6822
    STRESS:  cpu time    7.0680: real time    7.0681
    FORCOR:  cpu time    0.0734: real time    0.0734
    FORHAR:  cpu time    0.0324: real time    0.0324
    MIXING:  cpu time    0.0023: real time    0.0023
    OFIELD:  cpu time    0.0000: real time    0.0000

  FORCE on cell =-STRESS in cart. coord.  units (eV):
  Direction    XX          YY          ZZ          XY          YZ          ZX
  --------------------------------------------------------------------------------------
  Alpha Z   541.01970   541.01970   541.01970
  Ewald   81839.65146 86479.68302-93288.78502  -860.70027   -57.02804   310.18545
  Hartree 86452.83151 90911.49037-82525.62662  -674.35162   -64.14621   326.14130
  E(xc)   -1533.19096 -1533.88613 -1523.12837     0.13467    -0.93765     0.37478
  Local  ************************171974.35662  1531.15212   122.26925  -638.84901
  n-local   -80.46242   -86.69665  -120.11455     9.52216    -1.30536     2.33549
  augment   454.59167   455.66926   451.28564    -1.37106     0.37139    -0.04559
  Kinetic  4456.83484  4445.93765  4475.24709    -8.54653     6.26351    -1.19552
  Fock        0.00000     0.00000     0.00000     0.00000     0.00000     0.00000
  -------------------------------------------------------------------------------------
  Total     -31.66772   -30.75125   -15.74552    -4.16053     5.48689    -1.05309
  in kB     -13.92505   -13.52206    -6.92368    -1.82948     2.41272    -0.46307
  external pressure =      -11.46 kB  Pullay stress =        0.00 kB


 VOLUME and BASIS-vectors are now :
 -----------------------------------------------------------------------------
  energy-cutoff  :      600.00
  volume of cell :     3643.60
      direct lattice vectors                 reciprocal lattice vectors
    13.771350861  0.000000000  0.000000000     0.072614518  0.000000000  0.000000000
     0.000000000  9.564481735  0.000000000     0.000000000  0.104553496  0.000000000
     0.000000000  0.000000000 27.662570434     0.000000000  0.000000000  0.036149931

  length of vectors
    13.771350861  9.564481735 27.662570434     0.072614518  0.104553496  0.036149931


 FORCES acting on ions
    electron-ion (+dipol)            ewald-force                    non-local-force                 convergence-correction
 -----------------------------------------------------------------------------------------------
   -.471E+02 -.335E+02 0.386E+03   0.468E+02 0.332E+02 -.385E+03   0.127E+00 0.111E+00 -.798E+00   0.126E-01 0.208E-02 0.693E-02
   -.171E+02 -.368E+02 -.125E+03   0.172E+02 0.368E+02 0.125E+03   -.506E-01 0.562E-01 -.835E-01   0.863E-02 0.113E-02 0.123E-01
   0.333E+02 0.227E+02 -.381E+03   -.329E+02 -.223E+02 0.380E+03   -.355E+00 -.471E+00 0.107E+01   0.570E-02 -.558E-03 0.258E-02
   0.762E+00 0.496E+01 0.204E+03   -.909E+00 -.482E+01 -.203E+03   0.121E+00 -.266E+00 -.815E+00   0.136E-01 0.612E-03 0.109E-01
   -.619E+02 0.460E+01 -.110E+03   0.616E+02 -.410E+01 0.112E+03   0.325E+00 -.504E+00 -.172E+01   -.804E-02 -.539E-03 0.127E-01
   -.461E+02 0.465E+01 0.329E+03   0.454E+02 -.409E+01 -.326E+03   0.650E+00 -.990E+00 -.226E+01   -.151E-01 0.694E-03 0.682E-02
   -.379E+03 -.113E+02 0.482E+03   0.379E+03 0.121E+02 -.483E+03   0.163E+00 -.376E+00 0.843E+00   0.220E-01 -.112E-01 0.484E-01
   -.295E+03 0.263E+02 -.164E+04   0.293E+03 -.252E+02 0.163E+04   0.153E+01 -.108E+01 0.374E+01   0.305E-02 0.169E-03 0.164E-01
   0.101E+03 -.886E+01 0.165E+04   -.101E+03 0.776E+01 -.165E+04   -.528E+00 0.630E+00 -.432E+01   0.472E-01 -.112E-02 0.225E-01
   0.165E+03 -.131E+02 -.363E+03   -.165E+03 0.132E+02 0.365E+03   0.166E+00 -.604E-01 -.137E+01   0.361E-01 -.268E-02 0.709E-01
   -.549E+02 0.136E+03 0.172E+04   0.556E+02 -.136E+03 -.172E+04   -.495E+00 -.407E+00 -.280E+01   0.607E-01 -.116E-01 0.281E-01
   0.811E+02 0.138E+03 -.369E+03   -.802E+02 -.138E+03 0.369E+03   -.875E+00 0.953E-01 -.288E+00   0.295E-01 -.237E-02 0.597E-01
   -.422E+03 0.892E+01 0.754E+03   0.423E+03 -.100E+02 -.753E+03   -.784E+00 0.135E+01 -.155E+01   0.134E-01 0.839E-02 0.508E-01
   -.127E+03 -.439E+02 -.148E+04   0.128E+03 0.436E+02 0.148E+04   -.113E+01 0.313E+00 0.305E+01   0.963E-02 0.258E-02 0.111E-01
   0.297E+03 -.113E+03 0.156E+04   -.297E+03 0.114E+03 -.155E+04   0.253E+00 -.374E+00 -.415E+01   0.337E-01 -.221E-01 0.236E-01
   0.336E+03 -.153E+03 -.391E+03   -.336E+03 0.153E+03 0.392E+03   0.101E+00 0.158E+00 -.680E+00   0.256E-01 0.561E-02 0.780E-01
   -.125E+02 0.206E+01 0.189E+03   0.120E+02 -.201E+01 -.189E+03   0.540E+00 -.274E+00 0.344E-01   0.164E-01 -.916E-03 0.240E-01
   -.845E+01 -.398E+02 -.650E+03   0.813E+01 0.394E+02 0.647E+03   0.311E+00 0.418E+00 0.252E+01   0.771E-02 0.129E-03 0.806E-02
   0.173E+03 -.142E+01 0.178E+03   -.172E+03 0.129E+01 -.179E+03   -.136E+01 0.518E+00 0.588E+00   -.966E-03 -.268E-02 0.283E-01
   0.115E+03 -.907E+02 -.572E+03   -.113E+03 0.923E+02 0.569E+03   -.152E+01 -.164E+01 0.346E+01   0.152E-02 0.190E-02 0.143E-01
   0.127E+03 -.576E+02 -.119E+03   -.127E+03 0.573E+02 0.119E+03   -.196E+00 0.284E+00 -.152E-01   -.448E-03 0.172E-02 0.225E-01
   0.117E+03 -.553E+02 0.477E+03   -.116E+03 0.553E+02 -.474E+03   -.845E+00 -.190E+00 -.267E+01   -.326E-02 -.112E-02 0.228E-02
   -.976E+02 0.614E+02 -.142E+03   0.975E+02 -.611E+02 0.141E+03   0.954E-01 -.257E+00 0.581E+00   0.505E-02 -.227E-02 0.172E-01
   -.100E+03 0.597E+02 0.530E+03   0.998E+02 -.592E+02 -.527E+03   0.482E+00 -.489E+00 -.277E+01   0.833E-02 0.168E-02 0.104E-01
   0.802E+02 -.920E+01 0.170E+03   -.813E+02 0.873E+01 -.170E+03   0.883E+00 0.733E+00 -.467E+00   0.143E-01 -.876E-03 0.204E-01
   0.210E+02 -.505E+02 -.532E+03   -.221E+02 0.501E+02 0.530E+03   0.104E+01 0.339E+00 0.229E+01   0.670E-02 -.995E-03 0.106E-01
   -.125E+03 -.240E+01 -.449E+03   0.124E+03 0.233E+01 0.447E+03   0.190E+00 0.753E-01 0.211E+01   -.333E-02 -.161E-02 0.377E-02
   -.164E+03 0.682E+01 0.199E+03   0.164E+03 -.661E+01 -.200E+03   0.265E+00 -.406E+00 0.386E+00   -.723E-02 0.137E-02 0.109E-01
   -.150E+03 -.607E+01 0.486E+03   0.149E+03 0.601E+01 -.483E+03   0.666E+00 -.467E-01 -.255E+01   -.799E-02 -.666E-02 0.989E-02
   -.199E+03 0.361E+01 -.146E+03   0.198E+03 -.358E+01 0.146E+03   0.658E+00 -.317E-01 0.356E+00   -.428E-02 -.194E-02 0.139E-01
   0.809E+02 -.173E+01 0.182E+03   -.811E+02 0.213E+01 -.183E+03   0.935E-02 -.470E-01 -.425E-01   0.173E-01 0.101E-02 0.184E-01
   0.387E+02 0.432E+02 -.521E+03   -.380E+02 -.428E+02 0.519E+03   -.715E+00 -.344E+00 0.199E+01   0.848E-02 0.303E-02 0.696E-02
   0.617E+02 0.958E+00 -.159E+03   -.622E+02 -.798E+00 0.159E+03   0.472E+00 -.161E+00 0.578E+00   0.127E-01 0.831E-05 0.223E-01
   0.354E+02 -.103E+01 0.510E+03   -.361E+02 0.947E+00 -.507E+03   0.590E+00 0.245E-01 -.247E+01   0.226E-01 0.985E-03 0.597E-02
   0.131E+03 0.766E+01 0.165E+03   -.130E+03 -.788E+01 -.165E+03   -.636E+00 0.643E+00 -.316E+00   0.103E-01 0.195E-02 0.203E-01
   0.240E+02 -.232E+02 -.484E+03   -.225E+02 0.247E+02 0.481E+03   -.153E+01 -.149E+01 0.243E+01   0.598E-02 -.103E-02 0.100E-01
   0.127E+03 0.322E+01 0.190E+03   -.127E+03 -.304E+01 -.190E+03   -.475E-02 -.220E+00 -.523E+00   -.370E-02 0.138E-02 0.220E-01
   0.131E+03 0.740E+02 -.417E+03   -.132E+03 -.751E+02 0.415E+03   0.120E+01 0.115E+01 0.212E+01   -.931E-03 -.191E-02 0.903E-02
   0.126E+03 0.393E+02 0.433E+03   -.126E+03 -.390E+02 -.430E+03   0.127E+00 -.504E+00 -.281E+01   -.380E-02 0.559E-03 0.468E-02
   0.133E+03 0.310E+02 -.831E+02   -.132E+03 -.307E+02 0.827E+02   -.266E+00 -.354E+00 0.368E+00   -.252E-02 -.172E-02 0.222E-01
   -.990E+02 -.665E+00 0.494E+03   0.993E+02 0.635E+00 -.490E+03   -.473E+00 0.572E-01 -.310E+01   -.827E-02 0.545E-02 0.901E-02
   -.149E+03 -.322E+01 -.113E+03   0.148E+03 0.314E+01 0.113E+03   0.375E+00 0.737E-01 -.531E+00   -.660E-02 -.521E-03 0.147E-01
   0.130E+03 0.277E+02 0.462E+03   -.130E+03 -.280E+02 -.459E+03   -.203E+00 0.319E+00 -.248E+01   0.979E-02 0.506E-02 0.520E-02
   0.136E+03 0.435E+02 -.114E+03   -.136E+03 -.433E+02 0.113E+03   -.633E+00 -.229E+00 0.854E+00   0.551E-02 -.792E-03 0.217E-01
   0.597E+02 0.352E+02 -.482E+03   -.604E+02 -.362E+02 0.478E+03   0.745E+00 0.947E+00 0.365E+01   0.423E-02 0.548E-03 0.745E-02
   0.127E+03 -.411E+01 0.212E+03   -.127E+03 0.381E+01 -.213E+03   0.288E+00 0.115E+00 -.734E-01   0.974E-02 -.143E-02 0.241E-01
   0.345E+02 0.163E+01 0.146E+03   -.343E+02 -.166E+01 -.146E+03   -.676E-01 -.138E+00 0.447E+00   -.122E-01 0.751E-03 0.195E-01
   0.126E+02 0.157E+02 -.401E+03   -.139E+02 -.153E+02 0.399E+03   0.127E+01 -.318E+00 0.230E+01   -.596E-02 -.686E-03 0.465E-02
   -.413E+02 -.292E+00 0.447E+03   0.416E+02 0.677E+00 -.444E+03   -.482E-01 -.227E+00 -.283E+01   -.138E-01 -.111E-02 0.629E-02
   -.609E+02 -.742E+00 -.105E+03   0.608E+02 0.400E+00 0.105E+03   0.379E-01 0.340E+00 -.183E+00   -.115E-01 0.752E-03 0.152E-01
   0.513E+02 -.227E+01 0.427E+03   -.513E+02 0.161E+01 -.424E+03   0.170E-01 0.200E+00 -.308E+01   -.155E-01 -.190E-02 0.640E-02
   0.443E+02 -.139E+02 -.126E+03   -.439E+02 0.137E+02 0.127E+03   -.358E+00 0.196E+00 -.599E+00   -.968E-02 0.638E-04 0.193E-01
   -.704E+02 -.457E+01 0.184E+03   0.704E+02 0.486E+01 -.184E+03   0.106E+00 0.110E+00 0.484E-01   -.170E-01 -.206E-02 0.162E-01
   -.524E+02 0.186E+02 -.405E+03   0.528E+02 -.185E+02 0.402E+03   -.411E+00 -.120E+00 0.279E+01   -.720E-02 -.478E-03 0.643E-02
   0.404E+02 0.451E+00 0.443E+03   -.396E+02 -.308E+00 -.439E+03   -.830E+00 -.296E+00 -.320E+01   -.157E-01 0.253E-02 0.373E-02
   0.378E+02 0.866E+01 -.102E+03   -.372E+02 -.858E+01 0.102E+03   -.557E+00 -.786E-01 -.523E+00   -.747E-02 -.213E-03 0.201E-01
   -.958E+02 0.308E+01 0.154E+03   0.954E+02 -.328E+01 -.155E+03   0.473E+00 0.232E+00 0.239E+00   -.142E-01 0.243E-02 0.162E-01
   -.768E+02 -.763E+02 -.426E+03   0.761E+02 0.741E+02 0.424E+03   0.714E+00 0.223E+01 0.248E+01   -.798E-02 0.111E-02 0.177E-02
   0.363E+02 -.828E+01 -.401E+03   -.355E+02 0.867E+01 0.398E+03   -.775E+00 -.393E+00 0.233E+01   -.393E-02 0.410E-03 0.936E-02
   0.516E+02 -.534E+01 0.191E+03   -.509E+02 0.523E+01 -.191E+03   -.717E+00 0.487E+00 -.170E+00   -.152E-01 -.877E-03 0.213E-01
   -.141E+03 -.429E+02 0.525E+03   0.140E+03 0.422E+02 -.521E+03   0.831E+00 0.398E-01 -.325E+01   0.586E-02 -.124E-02 0.894E-02
   -.145E+03 -.428E+02 -.117E+03   0.145E+03 0.423E+02 0.118E+03   0.352E+00 0.476E+00 -.831E+00   0.403E-02 0.657E-03 0.137E-01
   -.158E+03 0.393E+01 0.180E+03   0.157E+03 -.390E+01 -.181E+03   0.694E+00 0.400E+00 0.390E+00   -.790E-02 -.144E-02 0.162E-01
   -.627E+02 0.376E+02 -.427E+03   0.632E+02 -.364E+02 0.425E+03   -.567E+00 -.116E+01 0.223E+01   -.514E-02 0.110E-02 0.189E-02
   0.960E+02 0.822E+02 -.752E+03   -.962E+02 -.834E+02 0.760E+03   0.198E+00 0.118E+01 -.797E+01   0.653E-02 -.673E-03 0.146E-01
   -.557E+02 0.711E+01 -.798E+03   0.547E+02 -.896E+01 0.813E+03   0.102E+01 0.184E+01 -.147E+02   -.195E-01 0.271E-02 -.816E-02
   0.119E+03 -.838E+01 -.719E+03   -.119E+03 0.803E+01 0.727E+03   0.392E+00 0.353E+00 -.837E+01   -.556E-02 -.237E-02 0.632E-02
 -----------------------------------------------------------------------------------------------
   -.178E+01 -.252E+01 0.400E+02   0.185E-12 -.178E-13 0.216E-11   0.155E+01 0.254E+01 -.411E+02   0.233E+00 -.311E-01 0.110E+01
 
 
 POSITION                                       TOTAL-FORCE (eV/Angst)
 -----------------------------------------------------------------------------------
      8.57631      8.29685     10.39845        -0.083996     -0.147551      0.007496
      8.56487      3.72984     15.09271        -0.003780     -0.004348      0.004488
      8.48262      6.16414     17.38232        -0.001550      0.003024      0.005736
      8.51616      0.79995     12.43874        -0.012731     -0.129294     -0.239632
     13.47075      6.13492     15.34609         0.000811     -0.003012      0.000869
     13.49094      1.15316     10.44749        -0.038866     -0.430598     -0.074717
     10.03344      3.28428     12.67411        -0.013692      0.429377     -0.641575
      9.99397      8.64543     17.15256         0.008057      0.001344      0.002231
      7.12524      5.81577     10.15765        -0.182771     -0.468257      0.886741
      7.09124      1.26328     14.93746        -0.001580     -0.003684      0.003322
      8.51222      3.28036     10.20450         0.258149      0.075787      0.727032
      8.54823      8.37154     14.84920         0.006675     -0.003460     -0.002533
     10.22263      8.06723     12.77991         0.227338      0.278846     -0.624880
     10.19996      3.90314     17.31229         0.000708     -0.000100     -0.000537
      5.42664      8.10481     10.20639         0.288698      0.072432      0.926838
      5.42283      3.52115     15.00534         0.000387      0.000320      0.004054
      8.52843      5.75423     12.65640         0.065083     -0.227785     -0.045615
      8.65940      1.54474     17.21808         0.000832      0.001793      0.000852
      3.84829      7.97317     12.47259        -0.356777      0.382270     -0.444878
      3.89357      3.56265     17.16703         0.000634     -0.001113      0.002166
      3.86381      5.65212     14.98795        -0.000327     -0.000065     -0.002335
      3.90063      0.73891     10.00000         0.508942     -0.141556      0.341187
     10.08433      6.04404     14.96705         0.001549     -0.005042      0.002417
     10.19112      1.10470     10.13736        -0.204971      0.046373      0.346322
      6.82945      7.99424     12.66670        -0.186173      0.255219     -0.331889
      6.88115      3.66378     17.29717        -0.003168     -0.001215      0.006695
     11.43245      6.32240     17.27802         0.001051      0.001397      0.002644
     11.66772      1.05372     12.57547        -0.091828     -0.197144     -0.723504
     11.73919      3.33868     10.41199        -0.290946     -0.111192      0.597936
     11.72384      8.26464     15.21868         0.002190     -0.003383     -0.000682
      7.18522      3.24644     12.75390        -0.161816      0.353220     -0.590072
      7.27780      8.61368     17.21859        -0.000197      0.004447     -0.001478
      6.88055      5.97408     14.96203         0.004075     -0.000331      0.005609
      6.87795      0.97560     10.08695        -0.089302     -0.059288      0.151636
      5.51084      5.55012     12.48419         0.043823      0.420717     -0.157709
      5.49896      1.15417     17.21720         0.000793      0.000699     -0.000646
      3.51249      3.50019     12.83519        -0.110330     -0.032375     -0.468423
      3.30387      8.84183     17.37888        -0.000030     -0.001303     -0.001008
      3.46798      5.87237     10.40868         0.037282     -0.266652     -0.091116
      3.38902      1.30114     15.18735         0.000002     -0.000397     -0.000966
     11.91771      8.21633     10.24534        -0.158539      0.033377      0.641401
     11.90191      3.67698     15.08267         0.002003     -0.003043     -0.000816
      5.24135      3.36543     10.32679         0.172971      0.082755      0.176811
      5.16962      8.35190     15.13365         0.000588      0.000285     -0.001137
      5.32172      6.26199     17.45495         0.002465      0.001878     -0.000615
      5.28930      0.99064     12.60849         0.029745     -0.192406     -0.287596
      1.60538      5.84491     12.85122         0.146445     -0.168477     -0.319902
      1.37755      1.73764     17.66887         0.007094     -0.003054     -0.001415
     13.72038      5.67134     10.18293         0.209676      0.157068      0.644095
     13.69271      1.06880     15.07582        -0.001479     -0.002015     -0.000663
      1.63456      8.33987     10.36453        -0.033923     -0.465824      0.154551
      1.55260      3.77435     15.26332         0.001320     -0.000721      0.000281
     13.76831      3.16119     12.53308         0.158430      0.397748     -0.367163
     13.76563      8.37671     17.27665         0.000386     -0.000019     -0.000591
      1.99440      3.17314     10.17666        -0.108355     -0.149824      0.699876
      1.87691      8.10816     14.98397        -0.002025     -0.000945     -0.001696
     13.48051      8.37930     12.86886         0.043168      0.034129     -0.328897
     13.25797      4.29437     17.79881         0.002859     -0.002221      0.001761
      2.09211      6.05039     17.21033         0.001298      0.000693      0.000528
      2.02729      0.87737     12.46815        -0.024173      0.375508     -0.450944
     10.07171      5.79402     10.14663         0.166280     -0.616535      0.167434
     10.17133      1.23917     14.88715         0.000260     -0.002058     -0.000599
     11.97051      5.66181     12.67660        -0.239850      0.431541     -0.305600
     11.90641      1.46929     17.57927         0.001668      0.001705      0.001428
      5.30592      8.58168     17.56280         0.001937      0.001083     -0.003384
     13.47320      2.42705     18.68670         0.000927      0.001064     -0.000543
      3.51915      1.38503     17.62626        -0.003423      0.000187      0.001317
 -----------------------------------------------------------------------------------
    total drift:                                0.009316     -0.005444     -0.028299


--------------------------------------------------------------------------------------------------------



  FREE ENERGIE OF THE ION-ELECTRON SYSTEM (eV)
  ---------------------------------------------------
  free  energy   TOTEN  =      -536.81111451 eV

  energy  without entropy=     -536.80948507  energy(sigma->0) =     -536.81070715
 
 d Force = 0.1619120E-04[ 0.126E-04, 0.197E-04]  d Energy = 0.3444489E-05 0.127E-04
 d Force = 0.8553538E-01[ 0.855E-01, 0.855E-01]  d Ewald  = 0.8553538E-01 0.422E-09


--------------------------------------------------------------------------------------------------------


    POTLOK:  cpu time    0.0593: real time    0.0593


--------------------------------------------------------------------------------------------------------


 Conjugate gradient step on ions:
 trial-energy change:   -0.000003  1 .order   -0.000016   -0.000020   -0.000013
  (g-gl).g = 0.112E-04      g.g   = 0.115E-04  gl.gl    = 0.155E-04
 g(Force)  = 0.115E-04   g(Stress)= 0.000E+00 ortho     = 0.374E-06
 gamma     =   0.72150
 trial     =   1.67351
 opt step  =   4.65732  (harmonic =   4.65732) maximal distance =0.00062888
 next E    =  -536.811139   (d E  =  -0.00003)


--------------------------------------------------------------------------------------------------------


  
 reached required accuracy - stopping structural energy minimisation
     LOOP+:  cpu time   39.4293: real time   39.4887
    4ORBIT:  cpu time    0.0000: real time    0.0000

 total amount of memory used by VASP on root node    77332. kBytes
========================================================================

   base      :      30000. kBytes
   nonl-proj :      13674. kBytes
   fftplans  :       3278. kBytes
   grid      :       7939. kBytes
   one-center:         31. kBytes
   wavefun   :      22410. kBytes
 
  
  
 General timing and accounting informations for this job:
 ========================================================
  
                  Total CPU time used (sec):      479.801
                            User time (sec):      471.399
                          System time (sec):        8.402
                         Elapsed time (sec):      480.391
  
                   Maximum memory used (kb):      154532.
                   Average memory used (kb):           0.
  
                          Minor page faults:        40966
                          Major page faults:            0
                 Voluntary context switches:         4209
