 vasp.5.4.1 05Feb16 (build Mar 19 2020 08:54:17) complex                        
  
 executed on           IFC91_ompi date 2021.10.23  15:03:49
 running on   96 total cores
 distrk:  each k-point on   96 cores,    1 groups
 distr:  one band on NCORES_PER_BAND=  48 cores,    2 groups


--------------------------------------------------------------------------------------------------------


 INCAR:
 POTCAR:    PAW_PBE Al 04Jan2001                  
 POTCAR:    PAW_PBE Nb_sv 25May2007               
 POTCAR:    PAW_PBE Ta 17Jan2003                  
 POTCAR:    PAW_PBE Ti 08Apr2002                  
 POTCAR:   PAW_PBE Zr 08Apr2002                   
 POTCAR:    PAW_PBE O 08Apr2002                   

 ----------------------------------------------------------------------------- 
|                                                                             |
|           W    W    AA    RRRRR   N    N  II  N    N   GGGG   !!!           |
|           W    W   A  A   R    R  NN   N  II  NN   N  G    G  !!!           |
|           W    W  A    A  R    R  N N  N  II  N N  N  G       !!!           |
|           W WW W  AAAAAA  RRRRR   N  N N  II  N  N N  G  GGG   !            |
|           WW  WW  A    A  R   R   N   NN  II  N   NN  G    G                |
|           W    W  A    A  R    R  N    N  II  N    N   GGGG   !!!           |
|                                                                             |
|      For optimal performance we recommend to set                            |
|        NCORE= 4 - approx SQRT( number of cores)                             |
|      NCORE specifies how many cores store one orbital (NPAR=cpu/NCORE).     |
|      This setting can  greatly improve the performance of VASP for DFT.     |
|      The default, NPAR=number of cores might be grossly inefficient         |
|      on modern multi-core architectures or massively parallel machines.     |
|      Do your own testing !!!!                                               |
|      Unfortunately you need to use the default for GW and RPA calculations. |
|      (for HF NCORE is supported but not extensively tested yet)             |
|                                                                             |
 ----------------------------------------------------------------------------- 

 POTCAR:    PAW_PBE Al 04Jan2001                  
   VRHFIN =Al: s2p1                                                             
   LEXCH  = PE                                                                  
   EATOM  =    53.5387 eV,    3.9350 Ry                                         
                                                                                
   TITEL  = PAW_PBE Al 04Jan2001                                                
   LULTRA =        F    use ultrasoft PP ?                                      
   IUNSCR =        1    unscreen: 0-lin 1-nonlin 2-no                           
   RPACOR =    1.500    partial core radius                                     
   POMASS =   26.981; ZVAL   =    3.000    mass and valenz                      
   RCORE  =    1.900    outmost cutoff radius                                   
   RWIGS  =    2.650; RWIGS  =    1.402    wigner-seitz radius (au A)           
   ENMAX  =  240.300; ENMIN  =  180.225 eV                                      
   ICORE  =        2    local potential                                         
   LCOR   =        T    correct aug charges                                     
   LPAW   =        T    paw PP                                                  
   EAUG   =  291.052                                                            
   DEXC   =    0.000                                                            
   RMAX   =    1.939    core radius for proj-oper                               
   RAUG   =    1.300    factor for augmentation sphere                          
   RDEP   =    1.966    radius for radial grids                                 
   RDEPT  =    1.856    core radius for aug-charge                              
                                                                                
   Atomic configuration                                                         
    6 entries                                                                   
     n  l   j            E        occ.                                          
     1  0  0.50     -1511.1048   2.0000                                         
     2  0  0.50      -108.1629   2.0000                                         
     2  1  1.50       -69.6402   6.0000                                         
     3  0  0.50        -7.7528   2.0000                                         
     3  1  1.50        -2.7121   1.0000                                         
     3  2  2.50        -2.7212   0.0000                                         
   Description                                                                  
     l       E           TYP  RCUT    TYP  RCUT                                 
     0     -7.7528455     23  1.900                                             
     0     -3.3096929     23  1.900                                             
     1     -2.7120682     23  1.900                                             
     1     13.6058260     23  1.900                                             
     2     -2.7211652      7  1.900                                             
  local pseudopotential read in
  partial core-charges read in
  partial kinetic energy density read in
  atomic valenz-charges read in
  non local Contribution for L=           0  read in
    real space projection operators read in
  non local Contribution for L=           0  read in
    real space projection operators read in
  non local Contribution for L=           1  read in
    real space projection operators read in
  non local Contribution for L=           1  read in
    real space projection operators read in
    PAW grid and wavefunctions read in
 
   number of l-projection  operators is LMAX  =           4
   number of lm-projection operators is LMMAX =           8
 
 POTCAR:    PAW_PBE Nb_sv 25May2007               
   VRHFIN =Nb: 4p5s4d                                                           
   LEXCH  = PE                                                                  
   EATOM  =  1555.1913 eV,  114.3033 Ry                                         
                                                                                
   TITEL  = PAW_PBE Nb_sv 25May2007                                             
   LULTRA =        F    use ultrasoft PP ?                                      
   IUNSCR =        1    unscreen: 0-lin 1-nonlin 2-no                           
   RPACOR =    1.800    partial core radius                                     
   POMASS =   92.910; ZVAL   =   13.000    mass and valenz                      
   RCORE  =    2.400    outmost cutoff radius                                   
   RWIGS  =    2.400; RWIGS  =    1.270    wigner-seitz radius (au A)           
   ENMAX  =  293.235; ENMIN  =  219.927 eV                                      
   ICORE  =        3    local potential                                         
   LCOR   =        T    correct aug charges                                     
   LPAW   =        T    paw PP                                                  
   EAUG   =  455.659                                                            
   DEXC   =    0.000                                                            
   RMAX   =    2.456    core radius for proj-oper                               
   RAUG   =    1.300    factor for augmentation sphere                          
   RDEP   =    2.451    radius for radial grids                                 
   RDEPT  =    1.956    core radius for aug-charge                              
                                                                                
   Atomic configuration                                                         
   11 entries                                                                   
     n  l   j            E        occ.                                          
     1  0  0.50    -18805.2457   2.0000                                         
     2  0  0.50     -2630.2869   2.0000                                         
     2  1  1.50     -2348.4046   6.0000                                         
     3  0  0.50      -438.8757   2.0000                                         
     3  1  1.50      -346.7588   6.0000                                         
     3  2  2.50      -196.2560  10.0000                                         
     4  0  0.50       -58.3859   2.0000                                         
     5  0  0.50        -3.9816   1.0000                                         
     4  1  1.50       -34.5141   6.0000                                         
     4  2  2.50        -3.0408   4.0000                                         
     4  3  2.50        -1.3606   0.0000                                         
   Description                                                                  
     l       E           TYP  RCUT    TYP  RCUT                                 
     0    -58.3859094     23  2.200                                             
     0     -3.9816262     23  2.200                                             
     1    -34.5140738     23  2.200                                             
     1     13.6058260     23  2.200                                             
     2     -3.0408010     23  2.200                                             
     2     -0.1283038     23  2.200                                             
     3     -1.3605826     23  2.400                                             
  local pseudopotential read in
  partial core-charges read in
  partial kinetic energy density read in
  atomic valenz-charges read in
  non local Contribution for L=           0  read in
    real space projection operators read in
  non local Contribution for L=           0  read in
    real space projection operators read in
  non local Contribution for L=           1  read in
    real space projection operators read in
  non local Contribution for L=           1  read in
    real space projection operators read in
  non local Contribution for L=           2  read in
    real space projection operators read in
  non local Contribution for L=           2  read in
    real space projection operators read in
    PAW grid and wavefunctions read in
 
   number of l-projection  operators is LMAX  =           6
   number of lm-projection operators is LMMAX =          18
 
 POTCAR:    PAW_PBE Ta 17Jan2003                  
   VRHFIN =Ta:  6s5d                                                            
   LEXCH  = PE                                                                  
   EATOM  =   130.6506 eV,    9.6025 Ry                                         
                                                                                
   TITEL  = PAW_PBE Ta 17Jan2003                                                
   LULTRA =        F    use ultrasoft PP ?                                      
   IUNSCR =        1    unscreen: 0-lin 1-nonlin 2-no                           
   RPACOR =    2.330    partial core radius                                     
   POMASS =  180.948; ZVAL   =    5.000    mass and valenz                      
   RCORE  =    2.900    outmost cutoff radius                                   
   RWIGS  =    2.840; RWIGS  =    1.503    wigner-seitz radius (au A)           
   ENMAX  =  223.667; ENMIN  =  167.750 eV                                      
   RCLOC  =    2.205    cutoff for local pot                                    
   LCOR   =        T    correct aug charges                                     
   LPAW   =        T    paw PP                                                  
   EAUG   =  332.075                                                            
   DEXC   =    0.000                                                            
   RMAX   =    2.970    core radius for proj-oper                               
   RAUG   =    1.300    factor for augmentation sphere                          
   RDEP   =    3.060    radius for radial grids                                 
   RDEPT  =    2.354    core radius for aug-charge                              
                                                                                
   Atomic configuration                                                         
   16 entries                                                                   
     n  l   j            E        occ.                                          
     1  0  0.50    -67341.2807   2.0000                                         
     2  0  0.50    -11566.9376   2.0000                                         
     2  1  1.50    -10134.1182   6.0000                                         
     3  0  0.50     -2648.5620   2.0000                                         
     3  1  1.50     -2222.6012   6.0000                                         
     3  2  2.50     -1726.3120  10.0000                                         
     4  0  0.50      -538.6961   2.0000                                         
     4  1  1.50      -399.0129   6.0000                                         
     4  2  2.50      -220.3959  10.0000                                         
     4  3  3.50       -23.0374  14.0000                                         
     5  0  0.50       -71.2901   2.0000                                         
     5  1  1.50       -37.8225   6.0000                                         
     5  2  2.50        -2.6455   4.0000                                         
     6  0  0.50        -4.9623   1.0000                                         
     6  1  1.50        -1.3606   0.0000                                         
     5  3  2.50        -1.3606   0.0000                                         
   Description                                                                  
     l       E           TYP  RCUT    TYP  RCUT                                 
     2     -2.6455043     23  2.500                                             
     2     -0.6258895     23  2.500                                             
     0     -4.9622780     23  2.500                                             
     0      4.7531321     23  2.500                                             
     1     -1.3605826     23  2.900                                             
     1     27.2116520     23  2.900                                             
  local pseudopotential read in
  partial core-charges read in
  partial kinetic energy density read in
  atomic valenz-charges read in
  non local Contribution for L=           2  read in
    real space projection operators read in
  non local Contribution for L=           2  read in
    real space projection operators read in
  non local Contribution for L=           0  read in
    real space projection operators read in
  non local Contribution for L=           0  read in
    real space projection operators read in
  non local Contribution for L=           1  read in
    real space projection operators read in
  non local Contribution for L=           1  read in
    real space projection operators read in
    PAW grid and wavefunctions read in
 
   number of l-projection  operators is LMAX  =           6
   number of lm-projection operators is LMMAX =          18
 
 POTCAR:    PAW_PBE Ti 08Apr2002                  
   VRHFIN =Ti: d3 s1                                                            
   LEXCH  = PE                                                                  
   EATOM  =    94.7928 eV,    6.9671 Ry                                         
                                                                                
   TITEL  = PAW_PBE Ti 08Apr2002                                                
   LULTRA =        F    use ultrasoft PP ?                                      
   IUNSCR =        1    unscreen: 0-lin 1-nonlin 2-no                           
   RPACOR =    2.200    partial core radius                                     
   POMASS =   47.880; ZVAL   =    4.000    mass and valenz                      
   RCORE  =    2.800    outmost cutoff radius                                   
   RWIGS  =    2.500; RWIGS  =    1.323    wigner-seitz radius (au A)           
   ENMAX  =  178.330; ENMIN  =  133.747 eV                                      
   RCLOC  =    2.215    cutoff for local pot                                    
   LCOR   =        T    correct aug charges                                     
   LPAW   =        T    paw PP                                                  
   EAUG   =  328.883                                                            
   DEXC   =    0.000                                                            
   RMAX   =    2.868    core radius for proj-oper                               
   RAUG   =    1.300    factor for augmentation sphere                          
   RDEP   =    2.885    radius for radial grids                                 
   RDEPT  =    2.320    core radius for aug-charge                              
                                                                                
   Atomic configuration                                                         
    9 entries                                                                   
     n  l   j            E        occ.                                          
     1  0  0.50     -4865.3608   2.0000                                         
     2  0  0.50      -533.1367   2.0000                                         
     2  1  1.50      -440.5031   6.0000                                         
     3  0  0.50       -59.3186   2.0000                                         
     3  1  1.50       -35.7012   6.0000                                         
     3  2  2.50        -1.9157   3.0000                                         
     4  0  0.50        -3.7291   1.0000                                         
     4  1  1.50        -4.0817   0.0000                                         
     4  3  2.50        -1.3606   0.0000                                         
   Description                                                                  
     l       E           TYP  RCUT    TYP  RCUT                                 
     2     -1.9156924     23  2.800                                             
     2     -0.4062961     23  2.800                                             
     0     -3.7290832     23  2.800                                             
     0     20.4087390     23  2.800                                             
     1     -5.4423304     23  2.800                                             
  local pseudopotential read in
  partial core-charges read in
  partial kinetic energy density read in
  atomic valenz-charges read in
  non local Contribution for L=           2  read in
    real space projection operators read in
  non local Contribution for L=           2  read in
    real space projection operators read in
  non local Contribution for L=           0  read in
    real space projection operators read in
  non local Contribution for L=           0  read in
    real space projection operators read in
  non local Contribution for L=           1  read in
    real space projection operators read in
    PAW grid and wavefunctions read in
 
   number of l-projection  operators is LMAX  =           5
   number of lm-projection operators is LMMAX =          15
 
 POTCAR:   PAW_PBE Zr 08Apr2002                   
   VRHFIN =Zr: 5s4d5p                                                           
   LEXCH  = PE                                                                  
   EATOM  =    77.8472 eV,    5.7216 Ry                                         
                                                                                
   TITEL  = PAW_PBE Zr 08Apr2002                                                
   LULTRA =        F    use ultrasoft PP ?                                      
   IUNSCR =        1    unscreen: 0-lin 1-nonlin 2-no                           
   RPACOR =    2.200    partial core radius                                     
   POMASS =   91.224; ZVAL   =    4.000    mass and valenz                      
   RCORE  =    3.000    outmost cutoff radius                                   
   RWIGS  =    3.070; RWIGS  =    1.625    wigner-seitz radius (au A)           
   ENMAX  =  154.632; ENMIN  =  115.974 eV                                      
   RCLOC  =    2.213    cutoff for local pot                                    
   LCOR   =        T    correct aug charges                                     
   LPAW   =        T    paw PP                                                  
   EAUG   =  243.217                                                            
   DEXC   =    -.082                                                            
   RMAX   =    3.708    core radius for proj-oper                               
   RAUG   =    1.300    factor for augmentation sphere                          
   RDEP   =    3.146    radius for radial grids                                 
   QCUT   =   -3.371; QGAM   =    6.742    optimization parameters              
                                                                                
   Description                                                                  
     l     E      TYP  RCUT    TYP  RCUT                                        
     2   .000     23  3.000                                                     
     2   .000     23  3.000                                                     
     0   .000     23  3.000                                                     
     0  2.000     23  3.000                                                     
     1  -.400     23  3.000                                                     
     3   .000      7   .000                                                     
  local pseudopotential read in
  partial core-charges read in
  atomic valenz-charges read in
  non local Contribution for L=           2  read in
    real space projection operators read in
  non local Contribution for L=           2  read in
    real space projection operators read in
  non local Contribution for L=           0  read in
    real space projection operators read in
  non local Contribution for L=           0  read in
    real space projection operators read in
  non local Contribution for L=           1  read in
    real space projection operators read in
    PAW grid and wavefunctions read in
 
   number of l-projection  operators is LMAX  =           5
   number of lm-projection operators is LMMAX =          15
 
 POTCAR:    PAW_PBE O 08Apr2002                   
   VRHFIN =O: s2p4                                                              
   LEXCH  = PE                                                                  
   EATOM  =   432.3788 eV,   31.7789 Ry                                         
                                                                                
   TITEL  = PAW_PBE O 08Apr2002                                                 
   LULTRA =        F    use ultrasoft PP ?                                      
   IUNSCR =        1    unscreen: 0-lin 1-nonlin 2-no                           
   RPACOR =    1.200    partial core radius                                     
   POMASS =   16.000; ZVAL   =    6.000    mass and valenz                      
   RCORE  =    1.520    outmost cutoff radius                                   
   RWIGS  =    1.550; RWIGS  =    0.820    wigner-seitz radius (au A)           
   ENMAX  =  400.000; ENMIN  =  300.000 eV                                      
   ICORE  =        2    local potential                                         
   LCOR   =        T    correct aug charges                                     
   LPAW   =        T    paw PP                                                  
   EAUG   =  605.392                                                            
   DEXC   =    0.000                                                            
   RMAX   =    1.553    core radius for proj-oper                               
   RAUG   =    1.300    factor for augmentation sphere                          
   RDEP   =    1.550    radius for radial grids                                 
   RDEPT  =    1.329    core radius for aug-charge                              
                                                                                
   Atomic configuration                                                         
    4 entries                                                                   
     n  l   j            E        occ.                                          
     1  0  0.50      -514.6923   2.0000                                         
     2  0  0.50       -23.9615   2.0000                                         
     2  1  0.50        -9.0305   4.0000                                         
     3  2  1.50        -9.5241   0.0000                                         
   Description                                                                  
     l       E           TYP  RCUT    TYP  RCUT                                 
     0    -23.9615318     23  1.200                                             
     0     -9.5240782     23  1.200                                             
     1     -9.0304911     23  1.520                                             
     1      8.1634956     23  1.520                                             
     2     -9.5240782      7  1.500                                             
  local pseudopotential read in
  partial core-charges read in
  partial kinetic energy density read in
  kinetic energy density of atom read in
  atomic valenz-charges read in
  non local Contribution for L=           0  read in
    real space projection operators read in
  non local Contribution for L=           0  read in
    real space projection operators read in
  non local Contribution for L=           1  read in
    real space projection operators read in
  non local Contribution for L=           1  read in
    real space projection operators read in
    PAW grid and wavefunctions read in
 
   number of l-projection  operators is LMAX  =           4
   number of lm-projection operators is LMMAX =           8
 

 ----------------------------------------------------------------------------- 
|                                                                             |
|  ADVICE TO THIS USER RUNNING 'VASP/VAMP'   (HEAR YOUR MASTER'S VOICE ...):  |
|                                                                             |
|      You have a (more or less) 'large supercell' and for larger cells       |
|      it might be more efficient to use real space projection opertators     |
|      So try LREAL= Auto  in the INCAR   file.                               |
|      Mind: At the moment your POTCAR file does not contain real space       |
|       projectors, and has to be modified,  BUT if you                       |
|      want to do an extremely  accurate calculation you might also keep the  |
|      reciprocal projection scheme          (i.e. LREAL=.FALSE.)             |
|                                                                             |
 ----------------------------------------------------------------------------- 

 WARNING: PSMAXN for non-local potential too small
          PSMAXN should be >   12.5490833729506       NTYP=           5
  PAW_PBE Al 04Jan2001                  :
 energy of atom  1       EATOM=  -53.5387
 kinetic energy error for atom=    0.0002 (will be added to EATOM!!)
  PAW_PBE Nb_sv 25May2007               :
 energy of atom  2       EATOM=-1555.1913
 kinetic energy error for atom=    0.0037 (will be added to EATOM!!)
  PAW_PBE Ta 17Jan2003                  :
 energy of atom  3       EATOM= -130.6506
 kinetic energy error for atom=    0.0004 (will be added to EATOM!!)
  PAW_PBE Ti 08Apr2002                  :
 energy of atom  4       EATOM=  -94.7928
 kinetic energy error for atom=    0.0001 (will be added to EATOM!!)
 PAW_PBE Zr 08Apr2002                   :
 energy of atom  5       EATOM=  -77.8472
 kinetic energy error for atom=    0.0001 (will be added to EATOM!!)
  PAW_PBE O 08Apr2002                   :
 energy of atom  6       EATOM= -432.3788
 kinetic energy error for atom=    0.0168 (will be added to EATOM!!)
 
 
 POSCAR: Al Nb Ta Ti Zr                          
  positions in direct lattice
  velocities in cartesian coordinates
 exchange correlation table for  LEXCH =        8
   RHO(1)=    0.500       N(1)  =     2000
   RHO(2)=  100.500       N(2)  =     4000
 


--------------------------------------------------------------------------------------------------------


 ion  position               nearest neighbor table
   1  0.623  0.867  0.376-  34 2.83  25 2.88  24 2.88   9 2.88  13 2.90   4 2.91  61 2.93  15 3.16
                            41 3.35  17 3.40
   2  0.620  0.400  0.545-  31 2.75  33 2.77  14 2.81  23 2.84   7 2.89  26 2.90  10 2.91   3 2.97
                            62 2.99  17 3.10  42 3.43
   3  0.635  0.630  0.617-  75 1.89  32 2.65  23 2.67  14 2.72   8 2.72  27 2.76  33 2.89   2 2.97
                            26 2.99  12 3.11
   4  0.618  0.084  0.450-  31 2.80  24 2.86  34 2.87  13 2.88   1 2.91  25 2.92   7 2.92  62 3.01
                            10 3.08  28 3.16  46 3.24
   5  0.976  0.642  0.552-  30 2.80  27 2.87  56 2.91  42 2.93  52 3.01  63 3.02  47 3.11  54 3.13
                            59 3.22  23 3.24  57 3.28  58 3.30
   6  0.980  0.121  0.378-  29 2.80  28 2.80  53 2.91  41 2.96  51 3.05  55 3.05  60 3.08  57 3.37

   7  0.729  0.343  0.458-  28 2.77  29 2.83  31 2.85   2 2.89  17 2.89  11 2.90   4 2.92  63 3.07
                            62 3.08  42 3.09
   8  0.725  0.882  0.625-  71 2.06  27 2.65  30 2.68   3 2.72  18 2.74  12 2.77  32 2.87  64 3.09
                            62 3.30
   9  0.517  0.608  0.367-  35 2.84  15 2.85  17 2.87   1 2.88  11 2.89  61 2.95  43 3.10
  10  0.510  0.141  0.545-  16 2.79  36 2.88  18 2.90   2 2.91  12 2.98  31 3.00  46 3.03  62 3.04
                             4 3.08  44 3.09
  11  0.618  0.343  0.369-  24 2.75  34 2.83  31 2.87   9 2.89   7 2.90  61 2.96  43 3.27
  12  0.615  0.869  0.541-   8 2.77  32 2.81  13 2.82  33 2.82  23 2.84  25 2.84  62 2.97  10 2.98
                             3 3.11  44 3.29
  13  0.742  0.843  0.462-  12 2.82  23 2.85  17 2.87   4 2.88   1 2.90  30 2.91  28 2.94  63 2.98
                            41 3.05  57 3.27
  14  0.741  0.392  0.627-  74 2.07   3 2.72  27 2.81   2 2.81  42 2.87  64 2.93  58 3.03  18 3.06
                            62 3.44
  15  0.394  0.847  0.369-  22 2.68  19 2.76  25 2.83  34 2.84   9 2.85  39 2.98   1 3.16  46 3.43

  16  0.387  0.372  0.546-  21 2.67  10 2.79  26 2.80  20 2.83  33 2.88  37 2.90  40 2.91  31 3.01
                            45 3.47
  17  0.619  0.602  0.458-  23 2.79  33 2.80  25 2.81  31 2.85   9 2.87  13 2.87   7 2.89  61 2.95
                            35 3.03   2 3.10   1 3.40  63 3.44
  18  0.620  0.124  0.634-  72 2.00  74 2.04  71 2.12   8 2.74  10 2.90  62 2.98  32 2.99  36 3.02
                            26 3.06  14 3.06  64 3.27
  19  0.279  0.834  0.451-  15 2.76  35 2.94  46 2.96  39 2.97  44 2.98  25 2.99  60 3.07  51 3.08
                            47 3.12  21 3.12  56 3.27
  20  0.277  0.351  0.632-  69 1.99  70 2.03  67 2.17  16 2.83  36 2.96  48 3.00  45 3.05  26 3.05
                            40 3.10  52 3.15  59 3.33
  21  0.278  0.600  0.530-  16 2.67  35 2.75  45 2.86  47 2.87  37 2.90  56 3.01  52 3.02  33 3.03
                            44 3.05  19 3.12
  22  0.283  0.077  0.361-  15 2.68  46 2.97  43 2.97  34 2.99  51 3.02  55 3.10  60 3.10
  23  0.743  0.637  0.537-   3 2.67  30 2.75  17 2.79  63 2.81  27 2.82  12 2.84   2 2.84  13 2.85
                            42 3.03   5 3.24
  24  0.740  0.115  0.366-  29 2.73  11 2.75  28 2.85   4 2.86   1 2.88  41 3.00
  25  0.496  0.836  0.458-  35 2.78  17 2.81  15 2.83  12 2.84   1 2.88   4 2.92  33 2.97  44 2.98
                            19 2.99  46 2.99
  26  0.497  0.391  0.630-  70 1.97  74 2.04  75 2.27  16 2.80   2 2.90   3 2.99  20 3.05  18 3.06
                            36 3.09  45 3.19
  27  0.833  0.654  0.628-  68 2.04   8 2.65   3 2.76  58 2.77  14 2.81  23 2.82   5 2.87  30 3.00
                            54 3.07  42 3.53
  28  0.847  0.110  0.455-   7 2.77   6 2.80  24 2.85  57 2.90  62 2.91  13 2.94  53 2.98  29 3.15
                            50 3.16   4 3.16  41 3.36
  29  0.852  0.349  0.376-  24 2.73   6 2.80   7 2.83  53 2.94  61 2.98  49 3.07  28 3.15  63 3.25

  30  0.852  0.874  0.551-   8 2.68  23 2.75   5 2.80  13 2.91  57 2.95  62 2.98  27 3.00  50 3.02
                            54 3.03  64 3.54
  31  0.522  0.339  0.461-   2 2.75   4 2.80  17 2.85   7 2.85  35 2.86  11 2.87  46 2.95  10 3.00
                            16 3.01  43 3.11
  32  0.519  0.847  0.630-  72 2.01  65 2.08  75 2.14   3 2.65  12 2.81   8 2.87  36 2.89  45 2.97
                            18 2.99  44 3.07
  33  0.496  0.628  0.538-   2 2.77  35 2.77  17 2.80  12 2.82  16 2.88   3 2.89  44 2.95  25 2.97
                            21 3.03  45 3.13
  34  0.499  0.102  0.365-  11 2.83   1 2.83  15 2.84   4 2.87  43 2.91  46 2.98  22 2.99
  35  0.400  0.580  0.451-  21 2.75  33 2.77  25 2.78   9 2.84  31 2.86  37 2.88  39 2.93  19 2.94
                            17 3.03  43 3.08
  36  0.401  0.098  0.633-  72 1.97  70 2.03  67 2.07  65 2.14  10 2.88  32 2.89  20 2.96  18 3.02
                            38 3.06  26 3.09  40 3.16  44 3.19
  37  0.255  0.366  0.464-  35 2.88  21 2.90  16 2.90  47 3.02  60 3.04  43 3.05  55 3.08  46 3.08
                            52 3.16  40 3.18  39 3.39
  38  0.222  0.910  0.636-  73 1.91  65 2.05  67 2.11  56 2.82  59 3.03  36 3.06  45 3.08  48 3.09
                            54 3.10  44 3.28  40 3.29
  39  0.252  0.614  0.376-  35 2.93  19 2.97  15 2.98  47 3.07  43 3.07  51 3.07  55 3.08  37 3.39
                            49 3.53
  40  0.250  0.140  0.548-  67 2.36  16 2.91  44 3.02  60 3.09  20 3.10  52 3.10  36 3.16  46 3.18
                            37 3.18  48 3.21  56 3.29  38 3.29  50 3.52
  41  0.865  0.859  0.370-   6 2.96  24 3.00  61 3.05  13 3.05  57 3.06  49 3.12   1 3.35  28 3.36
                            51 3.49  63 3.53
  42  0.868  0.378  0.545-  14 2.87   5 2.93  23 3.03  62 3.04  58 3.08   7 3.09  50 3.09  63 3.15
                            53 3.15  52 3.42   2 3.43  64 3.51  27 3.53
  43  0.381  0.352  0.373-  34 2.91  22 2.97  37 3.05  39 3.07  35 3.08   9 3.10  31 3.11  55 3.26
                            11 3.27  46 3.29
  44  0.376  0.882  0.546-  65 2.34  33 2.95  25 2.98  19 2.98  40 3.02  21 3.05  32 3.07  10 3.09
                            45 3.12  36 3.19  46 3.28  38 3.28  12 3.29  56 3.30
  45  0.352  0.650  0.625-  69 2.12  75 2.17  65 2.21  21 2.86  32 2.97  20 3.05  38 3.08  59 3.12
                            44 3.12  33 3.13  26 3.19  16 3.47
  46  0.384  0.104  0.456-  31 2.95  19 2.96  22 2.97  34 2.98  25 2.99  10 3.03  37 3.08  40 3.18
                             4 3.24  60 3.27  44 3.28  43 3.29  15 3.43
  47  0.117  0.611  0.465-  21 2.87  37 3.02  39 3.07   5 3.11  19 3.12  56 3.13  53 3.14  49 3.15
                            57 3.17  52 3.19  63 3.42  51 3.52  55 3.80
  48  0.096  0.177  0.635-  66 2.09  67 2.21  50 2.99  20 3.00  38 3.09  52 3.10  58 3.10  40 3.21
                            54 3.25  64 3.32
  49  0.996  0.593  0.368-  63 3.05  29 3.07  41 3.12  47 3.15  51 3.16  55 3.23  53 3.44  39 3.53
                            61 3.65  57 3.82
  50  0.995  0.112  0.542-  48 2.99  30 3.02  42 3.09  57 3.10  28 3.16  53 3.23  52 3.23  60 3.28
                            56 3.29  64 3.34  54 3.44  40 3.52  62 3.65
  51  0.119  0.872  0.375-  60 3.00  22 3.02   6 3.05  39 3.07  19 3.08  57 3.16  49 3.16  41 3.49
                            47 3.52
  52  0.116  0.400  0.554-   5 3.01  21 3.02  40 3.10  48 3.10  20 3.15  37 3.16  47 3.19  59 3.21
                            50 3.23  53 3.28  58 3.37  42 3.42
  53  1.000  0.331  0.453-   6 2.91  29 2.94  28 2.98  60 3.06  63 3.08  55 3.09  47 3.14  42 3.15
                            50 3.23  52 3.28  49 3.44
  54  0.998  0.868  0.633-  73 2.15  68 2.21  59 2.95  30 3.03  27 3.07  56 3.10  38 3.10   5 3.13
                            64 3.25  48 3.25  50 3.44
  55  0.145  0.332  0.368-   6 3.05  37 3.08  39 3.08  53 3.09  22 3.10  49 3.23  60 3.24  43 3.26
                            47 3.80
  56  0.138  0.836  0.546-  38 2.82   5 2.91  21 3.01  54 3.10  47 3.13  57 3.16  19 3.27  40 3.29
                            50 3.29  44 3.30  59 3.31  60 3.60
  57  0.979  0.876  0.465-  28 2.90  30 2.95  41 3.06  50 3.10  63 3.11  60 3.13  51 3.16  56 3.16
                            47 3.17  13 3.27   5 3.28   6 3.37  49 3.82
  58  0.956  0.430  0.646-  66 2.07  68 2.18  27 2.77  59 3.01  14 3.03  42 3.08  64 3.10  48 3.10
                             5 3.30  52 3.37
  59  0.128  0.623  0.640-  69 2.13  73 2.18  68 2.30  54 2.95  58 3.01  38 3.03  45 3.12  52 3.21
                             5 3.22  56 3.31  20 3.33
  60  0.147  0.092  0.451-  51 3.00  37 3.04  53 3.06  19 3.07   6 3.08  40 3.09  22 3.10  57 3.13
                            55 3.24  46 3.27  50 3.28  56 3.60
  61  0.731  0.606  0.367-   1 2.93  17 2.95   9 2.95  11 2.96  29 2.98  41 3.05  63 3.17  49 3.65

  62  0.730  0.131  0.542-  28 2.91  12 2.97  18 2.98  30 2.98   2 2.99   4 3.01  42 3.04  10 3.04
                             7 3.08  64 3.25   8 3.30  14 3.44  50 3.65
  63  0.869  0.592  0.458-  23 2.81  13 2.98   5 3.02  49 3.05   7 3.07  53 3.08  57 3.11  42 3.15
                            61 3.17  29 3.25  47 3.42  17 3.44  41 3.53
  64  0.857  0.139  0.641-  71 2.07  66 2.14  14 2.93   8 3.09  58 3.10  62 3.25  54 3.25  18 3.27
                            48 3.32  50 3.34  42 3.51  30 3.54
  65  0.369  0.879  0.630-  38 2.05  32 2.08  36 2.14  45 2.21  44 2.34
  66  0.977  0.235  0.677-  58 2.07  48 2.09  64 2.14
  67  0.252  0.126  0.634-  36 2.07  38 2.11  20 2.17  48 2.21  40 2.36
  68  0.967  0.654  0.659-  27 2.04  58 2.18  54 2.21  59 2.30
  69  0.257  0.529  0.668-  20 1.99  45 2.12  59 2.13
  70  0.399  0.286  0.667-  26 1.97  36 2.03  20 2.03
  71  0.740  0.043  0.674-   8 2.06  64 2.07  18 2.12
  72  0.513  0.025  0.669-  36 1.97  18 2.00  32 2.01
  73  0.125  0.826  0.676-  38 1.91  54 2.15  59 2.18
  74  0.620  0.319  0.663-  18 2.04  26 2.04  14 2.07
  75  0.506  0.626  0.640-   3 1.89  32 2.14  45 2.17  26 2.27
 
  LATTYP: Found a simple orthorhombic cell.
 ALAT       =     9.5644817352
 B/A-ratio  =     1.4398428730
 C/A-ratio  =     2.8922184390
  
  Lattice vectors:
  
 A1 = (   0.0000000000,  -9.5644817352,   0.0000000000)
 A2 = ( -13.7713508606,   0.0000000000,   0.0000000000)
 A3 = (   0.0000000000,   0.0000000000, -27.6625704340)


Analysis of symmetry for initial positions (statically):
=====================================================================
 Subroutine PRICEL returns:
 Original cell was already a primitive cell.
 

 Routine SETGRP: Setting up the symmetry group for a 
 simple orthorhombic supercell.


 Subroutine GETGRP returns: Found  1 space group operations
 (whereof  1 operations were pure point group operations)
 out of a pool of  8 trial point group operations.


The static configuration has the point symmetry C_1 .


Analysis of symmetry for dynamics (positions and initial velocities):
=====================================================================
 Subroutine PRICEL returns:
 Original cell was already a primitive cell.
 

 Routine SETGRP: Setting up the symmetry group for a 
 simple orthorhombic supercell.


 Subroutine GETGRP returns: Found  1 space group operations
 (whereof  1 operations were pure point group operations)
 out of a pool of  8 trial point group operations.


The dynamic configuration has the point symmetry C_1 .


Analysis of constrained symmetry for selective dynamics:
=====================================================================
 Subroutine PRICEL returns:
 Original cell was already a primitive cell.
 

 Routine SETGRP: Setting up the symmetry group for a 
 simple orthorhombic supercell.


 Subroutine GETGRP returns: Found  1 space group operations
 (whereof  1 operations were pure point group operations)
 out of a pool of  8 trial point group operations.


The constrained configuration has the point symmetry C_1 .


 Subroutine INISYM returns: Found  1 space group operations
 (whereof  1 operations are pure point group operations),
 and found     1 'primitive' translations

 
 
 KPOINTS: k-points                                

Automatic generation of k-mesh.
Space group operators:
 irot       det(A)        alpha          n_x          n_y          n_z        tau_x        tau_y        tau_z
    1     1.000000     0.000000     1.000000     0.000000     0.000000     0.000000     0.000000     0.000000
 
 Subroutine IBZKPT returns following result:
 ===========================================
 
 Found      5 irreducible k-points:
 
 Following reciprocal coordinates:
            Coordinates               Weight
  0.000000  0.000000  0.000000      1.000000
  0.333333  0.000000  0.000000      2.000000
  0.000000  0.333333  0.000000      2.000000
  0.333333  0.333333  0.000000      2.000000
 -0.333333  0.333333  0.000000      2.000000
 
 Following cartesian coordinates:
            Coordinates               Weight
  0.000000  0.000000  0.000000      1.000000
  0.024205  0.000000  0.000000      2.000000
  0.000000  0.034851  0.000000      2.000000
  0.024205  0.034851  0.000000      2.000000
 -0.024205  0.034851  0.000000      2.000000
 


--------------------------------------------------------------------------------------------------------




 Dimension of arrays:
   k-points           NKPTS =      5   k-points in BZ     NKDIM =      5   number of bands    NBANDS=    246
   number of dos      NEDOS =    301   number of ions     NIONS =     75
   non local maximal  LDIM  =      6   non local SUM 2l+1 LMDIM =     18
   total plane-waves  NPLWV = 846720
   max r-space proj   IRMAX =      1   max aug-charges    IRDMAX=  25433
   dimension x,y,z NGX =    84 NGY =   60 NGZ =  168
   dimension x,y,z NGXF=   168 NGYF=  120 NGZF=  336
   support grid    NGXF=   168 NGYF=  120 NGZF=  336
   ions per type =               6  10   4  18  26  11
 NGX,Y,Z   is equivalent  to a cutoff of  10.14, 10.43, 10.10 a.u.
 NGXF,Y,Z  is equivalent  to a cutoff of  20.28, 20.86, 20.19 a.u.


 I would recommend the setting:
   dimension x,y,z NGX =    83 NGY =   57 NGZ =  166
 SYSTEM =  (110) surface                           
 POSCAR =  Al Nb Ta Ti Zr                          

 Startparameter for this run:
   NWRITE =      2    write-flag & timer
   PREC   = normal    normal or accurate (medium, high low for compatibility)
   ISTART =      0    job   : 0-new  1-cont  2-samecut
   ICHARG =      2    charge: 1-file 2-atom 10-const
   ISPIN  =      1    spin polarized calculation?
   LNONCOLLINEAR =      F non collinear calculations
   LSORBIT =      F    spin-orbit coupling
   INIWAV =      1    electr: 0-lowe 1-rand  2-diag
   LASPH  =      F    aspherical Exc in radial PAW
   METAGGA=      F    non-selfconsistent MetaGGA calc.

 Electronic Relaxation 1
   ENCUT  =  600.0 eV  44.10 Ry    6.64 a.u.  27.50 19.10 55.25*2*pi/ulx,y,z
   ENINI  =  600.0     initial cutoff
   ENAUG  =  605.4 eV  augmentation charge cutoff
   NELM   =     60;   NELMIN=  2; NELMDL= -5     # of ELM steps 
   EDIFF  = 0.1E-03   stopping-criterion for ELM
   LREAL  =      F    real-space projection
   NLSPLINE    = F    spline interpolate recip. space projectors
   LCOMPAT=      F    compatible to vasp.4.4
   GGA_COMPAT  = T    GGA compatible to vasp.4.4-vasp.4.6
   LMAXPAW     = -100 max onsite density
   LMAXMIX     =    2 max onsite mixed and CHGCAR
   VOSKOWN=      0    Vosko Wilk Nusair interpolation
   ROPT   =    0.00000   0.00000   0.00000   0.00000
   ROPT   =    0.00000   0.00000
 Ionic relaxation
   EDIFFG = -.1E-01   stopping-criterion for IOM
   NSW    =    150    number of steps for IOM
   NBLOCK =      1;   KBLOCK =    150    inner block; outer block 
   IBRION =      2    ionic relax: 0-MD 1-quasi-New 2-CG
   NFREE  =      1    steps in history (QN), initial steepest desc. (CG)
   ISIF   =      2    stress and relaxation
   IWAVPR =     11    prediction:  0-non 1-charg 2-wave 3-comb
   ISYM   =      2    0-nonsym 1-usesym 2-fastsym
   LCORR  =      T    Harris-Foulkes like correction to forces

   POTIM  = 0.1000    time-step for ionic-motion
   TEIN   =    0.0    initial temperature
   TEBEG  =    0.0;   TEEND  =   0.0 temperature during run
   SMASS  =  -3.00    Nose mass-parameter (am)
   estimated Nose-frequenzy (Omega)   =  0.10E-29 period in steps =****** mass=  -0.433E-26a.u.
   SCALEE = 1.0000    scale energy and forces
   NPACO  =    256;   APACO  = 16.0  distance and # of slots for P.C.
   PSTRESS=    0.0 pullay stress

  Mass of Ions in am
   POMASS =  26.98 92.91180.95 47.88 91.22 16.00
  Ionic Valenz
   ZVAL   =   3.00 13.00  5.00  4.00  4.00  6.00
  Atomic Wigner-Seitz radii
   RWIGS  =  -1.00 -1.00 -1.00 -1.00 -1.00 -1.00
  virtual crystal weights 
   VCA    =   1.00  1.00  1.00  1.00  1.00  1.00
   NELECT =     410.0000    total number of electrons
   NUPDOWN=      -1.0000    fix difference up-down

 DOS related values:
   EMIN   =  10.00;   EMAX   =-10.00  energy-range for DOS
   EFERMI =   0.00
   ISMEAR =     2;   SIGMA  =   0.10  broadening in eV -4-tet -1-fermi 0-gaus

 Electronic relaxation 2 (details)
   IALGO  =     68    algorithm
   LDIAG  =      T    sub-space diagonalisation (order eigenvalues)
   LSUBROT=      F    optimize rotation matrix (better conditioning)
   TURBO    =      0    0=normal 1=particle mesh
   IRESTART =      0    0=no restart 2=restart with 2 vectors
   NREBOOT  =      0    no. of reboots
   NMIN     =      0    reboot dimension
   EREF     =   0.00    reference energy to select bands
   IMIX   =      4    mixing-type and parameters
     AMIX     =   0.40;   BMIX     =  1.00
     AMIX_MAG =   1.60;   BMIX_MAG =  1.00
     AMIN     =   0.10
     WC   =   100.;   INIMIX=   1;  MIXPRE=   1;  MAXMIX= -45

 Intra band minimization:
   WEIMIN = 0.0010     energy-eigenvalue tresh-hold
   EBREAK =  0.10E-06  absolut break condition
   DEPER  =   0.30     relativ break condition  

   TIME   =   0.40     timestep for ELM

  volume/ion in A,a.u.               =      48.58       327.84
  Fermi-wavevector in a.u.,A,eV,Ry     =   0.790362  1.493567  8.499176  0.624672
  Thomas-Fermi vector in A             =   1.895688
 
 Write flags
   LWAVE  =      F    write WAVECAR
   LCHARG =      F    write CHGCAR
   LVTOT  =      F    write LOCPOT, total local potential
   LVHAR  =      F    write LOCPOT, Hartree potential only
   LELF   =      F    write electronic localiz. function (ELF)
   LORBIT =      0    0 simple, 1 ext, 2 COOP (PROOUT)


 Dipole corrections
   LMONO  =      F    monopole corrections only (constant potential shift)
   LDIPOL =      F    correct potential (dipole corrections)
   IDIPOL =      0    1-x, 2-y, 3-z, 4-all directions 
   EPSILON=  1.0000000 bulk dielectric constant

 Exchange correlation treatment:
   GGA     =    --    GGA type
   LEXCH   =     8    internal setting for exchange type
   VOSKOWN=      0    Vosko Wilk Nusair interpolation
   LHFCALC =     F    Hartree Fock is set to
   LHFONE  =     F    Hartree Fock one center treatment
   AEXX    =    0.0000 exact exchange contribution

 Linear response parameters
   LEPSILON=     F    determine dielectric tensor
   LRPA    =     F    only Hartree local field effects (RPA)
   LNABLA  =     F    use nabla operator in PAW spheres
   LVEL    =     F    velocity operator in full k-point grid
   LINTERFAST=   F  fast interpolation
   KINTER  =     0    interpolate to denser k-point grid
   CSHIFT  =0.1000    complex shift for real part using Kramers Kronig
   OMEGAMAX=  -1.0    maximum frequency
   DEG_THRESHOLD= 0.2000000E-02 threshold for treating states as degnerate
   RTIME   =    0.100 relaxation time in fs

 Orbital magnetization related:
   ORBITALMAG=     F  switch on orbital magnetization
   LCHIMAG   =     F  perturbation theory with respect to B field
   DQ        =  0.001000  dq finite difference perturbation B field



--------------------------------------------------------------------------------------------------------


 conjugate gradient relaxation of ions
   using selective dynamics as specified on POSCAR
 charge density and potential will be updated during run
 non-spin polarized calculation
 RMM-DIIS sequential band-by-band and
  variant of blocked Davidson during initial phase
 perform sub-space diagonalisation
    before iterative eigenvector-optimisation
 modified Broyden-mixing scheme, WC =      100.0
 initial mixing is a Kerker type mixing with AMIX =  0.4000 and BMIX =      1.0000
 Hartree-type preconditioning will be used
 using additional bands           41
 reciprocal scheme for non local part
 use partial core corrections
 calculate Harris-corrections to forces 
   (improved forces if not selfconsistent)
 use gradient corrections 
 use of overlap-Matrix (Vanderbilt PP)
 Methfessel and Paxton  Order N= 2 SIGMA  =   0.10


--------------------------------------------------------------------------------------------------------


  energy-cutoff  :      600.00
  volume of cell :     3643.60
      direct lattice vectors                 reciprocal lattice vectors
    13.771350861  0.000000000  0.000000000     0.072614518  0.000000000  0.000000000
     0.000000000  9.564481735  0.000000000     0.000000000  0.104553496  0.000000000
     0.000000000  0.000000000 27.662570434     0.000000000  0.000000000  0.036149931

  length of vectors
    13.771350861  9.564481735 27.662570434     0.072614518  0.104553496  0.036149931


 
 k-points in units of 2pi/SCALE and weight: k-points                                
   0.00000000  0.00000000  0.00000000       0.111
   0.02420484  0.00000000  0.00000000       0.222
   0.00000000  0.03485117  0.00000000       0.222
   0.02420484  0.03485117  0.00000000       0.222
  -0.02420484  0.03485117  0.00000000       0.222
 
 k-points in reciprocal lattice and weights: k-points                                
   0.00000000  0.00000000  0.00000000       0.111
   0.33333333  0.00000000  0.00000000       0.222
   0.00000000  0.33333333  0.00000000       0.222
   0.33333333  0.33333333  0.00000000       0.222
  -0.33333333  0.33333333  0.00000000       0.222
 
 position of ions in fractional coordinates (direct lattice) 
   0.62276447  0.86746430  0.37590333
   0.61981948  0.39993857  0.54518008
   0.63462668  0.62995420  0.61668699
   0.61839700  0.08363760  0.44965952
   0.97583951  0.64199915  0.55202476
   0.97963780  0.12056648  0.37767599
   0.72857308  0.34338307  0.45816820
   0.72514452  0.88207205  0.62450137
   0.51739597  0.60805875  0.36719826
   0.50986244  0.14072946  0.54494336
   0.61811078  0.34297293  0.36889183
   0.61451921  0.86870199  0.54105474
   0.74231148  0.84345710  0.46199300
   0.74088534  0.39194643  0.62708157
   0.39405298  0.84738672  0.36896032
   0.38651760  0.37240654  0.54578938
   0.61928761  0.60162497  0.45752798
   0.62004686  0.12396163  0.63419752
   0.27944195  0.83362269  0.45088327
   0.27737974  0.35069458  0.63229856
   0.27825206  0.59956796  0.52963487
   0.28324246  0.07725573  0.36149931
   0.74286898  0.63723507  0.53653357
   0.74002355  0.11549973  0.36646499
   0.49591756  0.83582580  0.45790018
   0.49740081  0.39058261  0.63039216
   0.83328658  0.65365541  0.62781186
   0.84724605  0.11017048  0.45460239
   0.85243583  0.34907103  0.37639265
   0.85232370  0.87416287  0.55135563
   0.52175105  0.33942658  0.46105252
   0.51874021  0.84735329  0.63037494
   0.49648525  0.62809943  0.53780700
   0.49943882  0.10200214  0.36464270
   0.40016663  0.58028412  0.45130253
   0.40125117  0.09820575  0.63282064
   0.25505811  0.36595738  0.46399110
   0.22166156  0.90966447  0.63566953
   0.25182599  0.61397660  0.37627308
   0.24981017  0.14008980  0.54845054
   0.86539888  0.85904646  0.37036829
   0.86808597  0.37821524  0.54482048
   0.38059813  0.35186696  0.37331264
   0.37572166  0.88163296  0.54585985
   0.35211795  0.65037584  0.62475253
   0.38408008  0.10357511  0.45579618
   0.11657381  0.61110574  0.46457054
   0.09615923  0.17726092  0.63471303
   0.99629861  0.59295863  0.36811234
   0.99517903  0.11174278  0.54177112
   0.11869311  0.87196302  0.37467704
   0.11566538  0.39988377  0.55376412
   0.99977952  0.33051389  0.45306987
   0.99846770  0.86805660  0.63315624
   0.14482272  0.33176249  0.36788561
   0.13836507  0.83629314  0.54618623
   0.97888047  0.87608504  0.46520830
   0.95611050  0.42960841  0.64558205
   0.12840175  0.62344308  0.64021113
   0.14721048  0.09173214  0.45072276
   0.73135245  0.60578495  0.36679988
   0.73036364  0.13061468  0.54174323
   0.86923259  0.59196168  0.45825814
   0.85696407  0.13883811  0.64065291
   0.36898181  0.87923747  0.63028913
   0.97701608  0.23527091  0.67667376
   0.25242130  0.12619013  0.63361872
   0.96737882  0.65392587  0.65927367
   0.25701351  0.52895129  0.66773670
   0.39931941  0.28561095  0.66712980
   0.73969905  0.04285211  0.67352084
   0.51341203  0.02460026  0.66913471
   0.12547672  0.82627451  0.67626749
   0.61991910  0.31922665  0.66345404
   0.50559082  0.62578697  0.63952797
 
 position of ions in cartesian coordinates  (Angst):
   8.57630799  8.29684649 10.39845223
   8.53575153  3.82520516 15.08108243
   8.73966667  6.02518549 17.05914740
   8.51616202  0.79995025 12.43873821
  13.43862834  6.14038913 15.27042385
  13.49093588  1.15315590 10.44748880
  10.03343557  3.28428114 12.67411000
   9.98621956  8.43656200 17.27531322
   7.12524148  5.81576681 10.15764776
   7.02149453  1.34600438 15.07453416
   8.51222037  3.28035836 10.20449636
   8.46275959  8.30868432 14.96696472
  10.22263181  8.06723005 12.77991378
  10.20299191  3.74876450 17.34668804
   5.42664188  8.10481479 10.20639088
   5.32286951  3.56187550 15.09793705
   8.52842696  5.75423100 12.65640004
   8.53888281  1.18562874 17.54353364
   3.84829318  7.97316903 12.47259035
   3.81989374  3.35421194 17.49100348
   3.83190678  5.73455683 14.65106200
   3.90063135  0.73891098 10.00000000
  10.23030931  6.09482321 14.84189757
  10.19112400  1.10469510 10.13736353
   6.82945470  7.99424061 12.66669595
   6.84988104  3.73572024 17.43826740
  11.47548186  6.25187521 17.36688975
  11.66772263  1.05372358 12.57547056
  11.73919286  3.33868345 10.41198829
  11.73764869  8.36091483 15.25191381
   7.18521672  3.24643930 12.75389771
   7.14375342  8.10449508 17.43779120
   6.83727259  6.00744557 14.87712400
   6.87794726  0.97559764 10.08695433
   5.51083508  5.55011685 12.48418803
   5.52577067  0.93928710 17.50544552
   3.51249472  3.50019267 12.83518635
   3.05257915  8.70046920 17.58425304
   3.46798404  5.87236796 10.40868071
   3.44022348  1.33988632 15.17155166
  11.91771166  8.21633417 10.24533883
  11.95471644  3.61743275 15.07113502
   5.24135036  3.36542512 10.32678719
   5.17419475  8.43236233 15.09988662
   4.84913989  6.22050784 17.28226088
   5.28930157  0.99064225 12.60849381
   1.60537885  5.84490969 12.85121538
   1.32424247  1.69540882 17.55779378
  13.72037774  5.67134198 10.18293350
  13.70495964  1.06876182 14.98678179
   1.63456451  8.33987442 10.36453009
   1.59286859  3.82468102 15.31853890
  13.76831459  3.16119411 12.53307716
  13.75024908  8.30251152 17.51472913
   1.99440444  3.17313630 10.17666150
   1.90547391  7.99871042 15.10891511
  13.48050634  8.37929939 12.86885734
  13.16693312  4.10898177 17.85845887
   1.76826557  5.96291000 17.70988560
   2.02728715  0.87737042 12.46815015
  10.07171117  5.79401911 10.14662739
  10.05809399  1.24926170 14.98601031
  11.97050705  5.66180669 12.67659812
  11.80155285  1.32791460 17.72210634
   5.08137798  8.40945075 17.43541756
  13.45483122  2.25024428 18.71853549
   3.47618232  1.20694317 17.52752252
  13.32211313  6.25446205 18.23720431
   3.53942322  5.05914497 18.47131362
   5.49916765  2.73172069 18.45452515
  10.18665520  0.40985822 18.63131764
   7.07037725  0.23528877 18.50998594
   1.72798398  7.90288742 18.70729716
   8.53712339  3.05323744 18.35284422
   6.96266861  5.98532802 17.69098747
 


--------------------------------------------------------------------------------------------------------


 k-point  1 :   0.0000 0.0000 0.0000  plane waves:  121663
 k-point  2 :   0.3333 0.0000 0.0000  plane waves:  121577
 k-point  3 :   0.0000 0.3333 0.0000  plane waves:  121622
 k-point  4 :   0.3333 0.3333 0.0000  plane waves:  121647
 k-point  5 :  -0.3333 0.3333 0.0000  plane waves:  121647

 maximum and minimum number of plane-waves per node :      2568     2510

 maximum number of plane-waves:    121663
 maximum index in each direction: 
   IXMAX=   27   IYMAX=   19   IZMAX=   55
   IXMIN=  -27   IYMIN=  -19   IZMIN=  -55

 WARNING: aliasing errors must be expected set NGX to 110 to avoid them
 WARNING: aliasing errors must be expected set NGY to  78 to avoid them
 WARNING: aliasing errors must be expected set NGZ to 222 to avoid them
 aliasing errors are usually negligible using standard VASP settings
 and one can safely disregard these warnings

 parallel 3D FFT for wavefunctions:
    minimum data exchange during FFTs selected (reduces bandwidth)
 parallel 3D FFT for charge:
    minimum data exchange during FFTs selected (reduces bandwidth)


 total amount of memory used by VASP on root node    80534. kBytes
========================================================================

   base      :      30000. kBytes
   nonl-proj :      13998. kBytes
   fftplans  :       3278. kBytes
   grid      :       7939. kBytes
   one-center:         31. kBytes
   wavefun   :      25288. kBytes
 
     INWAV:  cpu time    0.0000: real time    0.0000
 Broyden mixing: mesh for mixing (old mesh)
   NGX = 55   NGY = 39   NGZ =111
  (NGX  =168   NGY  =120   NGZ  =336)
  gives a total of 238095 points

 initial charge density was supplied:
 charge density of overlapping atoms calculated
 number of electron     410.0000000 magnetization 
 keeping initial charge density in first step


--------------------------------------------------------------------------------------------------------


 Maximum index for augmentation-charges         1033 (set IRDMAX)


--------------------------------------------------------------------------------------------------------


 First call to EWALD:  gamma=   0.115
 Maximum number of real-space cells 3x 4x 2
 Maximum number of reciprocal cells 3x 2x 5

 FEWALD executed in parallel
    FEWALD:  cpu time    0.0024: real time    0.0024


----------------------------------------- Iteration    1(   1)  ---------------------------------------


    POTLOK:  cpu time    0.0572: real time    0.0576
    SETDIJ:  cpu time    0.0121: real time    0.0128
     EDDAV:  cpu time   10.3623: real time   10.3725
       DOS:  cpu time    0.0017: real time    0.0017
    --------------------------------------------
      LOOP:  cpu time   10.4369: real time   10.4523

 eigenvalue-minimisations  :  2588
 total energy-change (2. order) : 0.4985473E+04  (-0.1534122E+05)
 number of electron     410.0000000 magnetization 
 augmentation part      410.0000000 magnetization 

 Free energy of the ion-electron system (eV)
  ---------------------------------------------------
  alpha Z        PSCENC =       633.60512522
  Ewald energy   TEWEN  =     89083.67141846
  -Hartree energ DENC   =   -111454.85330338
  -exchange      EXHF   =         0.00000000
  -V(xc)+E(xc)   XCENC  =     -2782.99510158
  PAW double counting   =     23251.32536896   -19179.87696703
  entropy T*S    EENTRO =         0.00116125
  eigenvalues    EBANDS =       552.61087713
  atomic energy  EATOM  =     24881.98434549
  Solvation  Ediel_sol  =         0.00000000
  ---------------------------------------------------
  free energy    TOTEN  =      4985.47292451 eV

  energy without entropy =     4985.47176327  energy(sigma->0) =     4985.47263420


--------------------------------------------------------------------------------------------------------




----------------------------------------- Iteration    1(   2)  ---------------------------------------


     EDDAV:  cpu time   10.4368: real time   10.4424
       DOS:  cpu time    0.0015: real time    0.0015
    --------------------------------------------
      LOOP:  cpu time   10.4396: real time   10.4464

 eigenvalue-minimisations  :  2624
 total energy-change (2. order) :-0.4375804E+04  (-0.4247978E+04)
 number of electron     410.0000000 magnetization 
 augmentation part      410.0000000 magnetization 

 Free energy of the ion-electron system (eV)
  ---------------------------------------------------
  alpha Z        PSCENC =       633.60512522
  Ewald energy   TEWEN  =     89083.67141846
  -Hartree energ DENC   =   -111454.85330338
  -exchange      EXHF   =         0.00000000
  -V(xc)+E(xc)   XCENC  =     -2782.99510158
  PAW double counting   =     23251.32536896   -19179.87696703
  entropy T*S    EENTRO =        -0.00586769
  eigenvalues    EBANDS =     -3823.18616497
  atomic energy  EATOM  =     24881.98434549
  Solvation  Ediel_sol  =         0.00000000
  ---------------------------------------------------
  free energy    TOTEN  =       609.66885347 eV

  energy without entropy =      609.67472116  energy(sigma->0) =      609.67032039


--------------------------------------------------------------------------------------------------------




----------------------------------------- Iteration    1(   3)  ---------------------------------------


     EDDAV:  cpu time   16.2446: real time   16.2477
       DOS:  cpu time    0.0015: real time    0.0015
    --------------------------------------------
      LOOP:  cpu time   16.2473: real time   16.2531

 eigenvalue-minimisations  :  4552
 total energy-change (2. order) :-0.1135539E+04  (-0.1101967E+04)
 number of electron     410.0000000 magnetization 
 augmentation part      410.0000000 magnetization 

 Free energy of the ion-electron system (eV)
  ---------------------------------------------------
  alpha Z        PSCENC =       633.60512522
  Ewald energy   TEWEN  =     89083.67141846
  -Hartree energ DENC   =   -111454.85330338
  -exchange      EXHF   =         0.00000000
  -V(xc)+E(xc)   XCENC  =     -2782.99510158
  PAW double counting   =     23251.32536896   -19179.87696703
  entropy T*S    EENTRO =        -0.00659076
  eigenvalues    EBANDS =     -4958.72416786
  atomic energy  EATOM  =     24881.98434549
  Solvation  Ediel_sol  =         0.00000000
  ---------------------------------------------------
  free energy    TOTEN  =      -525.86987249 eV

  energy without entropy =     -525.86328173  energy(sigma->0) =     -525.86822480


--------------------------------------------------------------------------------------------------------




----------------------------------------- Iteration    1(   4)  ---------------------------------------


     EDDAV:  cpu time   13.8953: real time   13.9001
       DOS:  cpu time    0.0015: real time    0.0015
    --------------------------------------------
      LOOP:  cpu time   13.8978: real time   13.9043

 eigenvalue-minimisations  :  3776
 total energy-change (2. order) :-0.1654090E+03  (-0.1598615E+03)
 number of electron     410.0000000 magnetization 
 augmentation part      410.0000000 magnetization 

 Free energy of the ion-electron system (eV)
  ---------------------------------------------------
  alpha Z        PSCENC =       633.60512522
  Ewald energy   TEWEN  =     89083.67141846
  -Hartree energ DENC   =   -111454.85330338
  -exchange      EXHF   =         0.00000000
  -V(xc)+E(xc)   XCENC  =     -2782.99510158
  PAW double counting   =     23251.32536896   -19179.87696703
  entropy T*S    EENTRO =         0.00481072
  eigenvalues    EBANDS =     -5124.14453488
  atomic energy  EATOM  =     24881.98434549
  Solvation  Ediel_sol  =         0.00000000
  ---------------------------------------------------
  free energy    TOTEN  =      -691.27883803 eV

  energy without entropy =     -691.28364874  energy(sigma->0) =     -691.28004071


--------------------------------------------------------------------------------------------------------




----------------------------------------- Iteration    1(   5)  ---------------------------------------


     EDDAV:  cpu time   16.3828: real time   16.3920
       DOS:  cpu time    0.0016: real time    0.0016
    CHARGE:  cpu time    0.2300: real time    0.2307
    MIXING:  cpu time    0.0051: real time    0.0052
    --------------------------------------------
      LOOP:  cpu time   16.6208: real time   16.6322

 eigenvalue-minimisations  :  4600
 total energy-change (2. order) :-0.1723872E+02  (-0.1685026E+02)
 number of electron     409.9999947 magnetization 
 augmentation part       48.6468307 magnetization 

 Broyden mixing:
  rms(total) = 0.73275E+01    rms(broyden)= 0.73274E+01
  rms(prec ) = 0.78105E+01
  weight for this iteration     100.00

 Free energy of the ion-electron system (eV)
  ---------------------------------------------------
  alpha Z        PSCENC =       633.60512522
  Ewald energy   TEWEN  =     89083.67141846
  -Hartree energ DENC   =   -111454.85330338
  -exchange      EXHF   =         0.00000000
  -V(xc)+E(xc)   XCENC  =     -2782.99510158
  PAW double counting   =     23251.32536896   -19179.87696703
  entropy T*S    EENTRO =         0.00302174
  eigenvalues    EBANDS =     -5141.38146467
  atomic energy  EATOM  =     24881.98434549
  Solvation  Ediel_sol  =         0.00000000
  ---------------------------------------------------
  free energy    TOTEN  =      -708.51755680 eV

  energy without entropy =     -708.52057853  energy(sigma->0) =     -708.51831223


--------------------------------------------------------------------------------------------------------




----------------------------------------- Iteration    1(   6)  ---------------------------------------


    POTLOK:  cpu time    0.0484: real time    0.0484
    SETDIJ:  cpu time    0.0069: real time    0.0069
    EDDIAG:  cpu time    0.9408: real time    0.9438
  RMM-DIIS:  cpu time   10.0527: real time   10.0531
    ORTHCH:  cpu time    0.2597: real time    0.2704
       DOS:  cpu time    0.0015: real time    0.0015
    CHARGE:  cpu time    0.2267: real time    0.2267
    MIXING:  cpu time    0.0030: real time    0.0031
    --------------------------------------------
      LOOP:  cpu time   11.5416: real time   11.5579

 eigenvalue-minimisations  :  3837
 total energy-change (2. order) :-0.4192930E+02  (-0.1537187E+03)
 number of electron     409.9999960 magnetization 
 augmentation part       62.7158847 magnetization 

 Broyden mixing:
  rms(total) = 0.45454E+01    rms(broyden)= 0.45452E+01
  rms(prec ) = 0.61121E+01
  weight for this iteration     100.00

 eigenvalues of (default mixing * dielectric matrix)
  average eigenvalue GAMMA=   0.7778
  0.7778

 Free energy of the ion-electron system (eV)
  ---------------------------------------------------
  alpha Z        PSCENC =       633.60512522
  Ewald energy   TEWEN  =     89083.67141846
  -Hartree energ DENC   =   -112254.90483814
  -exchange      EXHF   =         0.00000000
  -V(xc)+E(xc)   XCENC  =     -2755.66560807
  PAW double counting   =     27551.29120306   -23484.59634742
  entropy T*S    EENTRO =         0.00998131
  eigenvalues    EBANDS =     -4405.84213271
  atomic energy  EATOM  =     24881.98434549
  Solvation  Ediel_sol  =         0.00000000
  ---------------------------------------------------
  free energy    TOTEN  =      -750.44685281 eV

  energy without entropy =     -750.45683412  energy(sigma->0) =     -750.44934814


--------------------------------------------------------------------------------------------------------




----------------------------------------- Iteration    1(   7)  ---------------------------------------


    POTLOK:  cpu time    0.0486: real time    0.0486
    SETDIJ:  cpu time    0.0066: real time    0.0066
    EDDIAG:  cpu time    0.9314: real time    0.9395
  RMM-DIIS:  cpu time    8.8360: real time    8.8360
    ORTHCH:  cpu time    0.2678: real time    0.2706
       DOS:  cpu time    0.0013: real time    0.0013
    CHARGE:  cpu time    0.2257: real time    0.2257
    MIXING:  cpu time    0.0019: real time    0.0019
    --------------------------------------------
      LOOP:  cpu time   10.3210: real time   10.3342

 eigenvalue-minimisations  :  3375
 total energy-change (2. order) : 0.2930131E+02  (-0.3868715E+02)
 number of electron     409.9999960 magnetization 
 augmentation part       59.7143629 magnetization 

 Broyden mixing:
  rms(total) = 0.41172E+01    rms(broyden)= 0.41172E+01
  rms(prec ) = 0.71029E+01
  weight for this iteration     100.00

 eigenvalues of (default mixing * dielectric matrix)
  average eigenvalue GAMMA=   0.6751
  1.0096  0.3406

 Free energy of the ion-electron system (eV)
  ---------------------------------------------------
  alpha Z        PSCENC =       633.60512522
  Ewald energy   TEWEN  =     89083.67141846
  -Hartree energ DENC   =   -111722.61607264
  -exchange      EXHF   =         0.00000000
  -V(xc)+E(xc)   XCENC  =     -2759.55390850
  PAW double counting   =     28195.23382799   -24139.79185610
  entropy T*S    EENTRO =        -0.01064277
  eigenvalues    EBANDS =     -4893.66778347
  atomic energy  EATOM  =     24881.98434549
  Solvation  Ediel_sol  =         0.00000000
  ---------------------------------------------------
  free energy    TOTEN  =      -721.14554633 eV

  energy without entropy =     -721.13490356  energy(sigma->0) =     -721.14288564


--------------------------------------------------------------------------------------------------------




----------------------------------------- Iteration    1(   8)  ---------------------------------------


    POTLOK:  cpu time    0.0486: real time    0.0486
    SETDIJ:  cpu time    0.0066: real time    0.0066
    EDDIAG:  cpu time    0.9414: real time    0.9452
  RMM-DIIS:  cpu time    9.8933: real time    9.8934
    ORTHCH:  cpu time    0.2695: real time    0.2715
       DOS:  cpu time    0.0016: real time    0.0016
    CHARGE:  cpu time    0.2269: real time    0.2269
    MIXING:  cpu time    0.0019: real time    0.0019
    --------------------------------------------
      LOOP:  cpu time   11.3915: real time   11.4001

 eigenvalue-minimisations  :  3745
 total energy-change (2. order) : 0.6094437E+02  (-0.1998963E+02)
 number of electron     409.9999960 magnetization 
 augmentation part       51.9973335 magnetization 

 Broyden mixing:
  rms(total) = 0.31795E+01    rms(broyden)= 0.31795E+01
  rms(prec ) = 0.49337E+01
  weight for this iteration     100.00

 eigenvalues of (default mixing * dielectric matrix)
  average eigenvalue GAMMA=   0.6580
  1.3091  0.4445  0.2205

 Free energy of the ion-electron system (eV)
  ---------------------------------------------------
  alpha Z        PSCENC =       633.60512522
  Ewald energy   TEWEN  =     89083.67141846
  -Hartree energ DENC   =   -111956.38332995
  -exchange      EXHF   =         0.00000000
  -V(xc)+E(xc)   XCENC  =     -2760.56904629
  PAW double counting   =     29057.80347292   -25006.24904449
  entropy T*S    EENTRO =        -0.01346959
  eigenvalues    EBANDS =     -4594.05065146
  atomic energy  EATOM  =     24881.98434549
  Solvation  Ediel_sol  =         0.00000000
  ---------------------------------------------------
  free energy    TOTEN  =      -660.20117970 eV

  energy without entropy =     -660.18771011  energy(sigma->0) =     -660.19781230


--------------------------------------------------------------------------------------------------------




----------------------------------------- Iteration    1(   9)  ---------------------------------------


    POTLOK:  cpu time    0.0488: real time    0.0488
    SETDIJ:  cpu time    0.0067: real time    0.0067
    EDDIAG:  cpu time    0.9479: real time    0.9512
  RMM-DIIS:  cpu time    8.7387: real time    8.7387
    ORTHCH:  cpu time    0.2700: real time    0.2730
       DOS:  cpu time    0.0016: real time    0.0016
    CHARGE:  cpu time    0.2266: real time    0.2266
    MIXING:  cpu time    0.0020: real time    0.0020
    --------------------------------------------
      LOOP:  cpu time   10.2439: real time   10.2528

 eigenvalue-minimisations  :  3337
 total energy-change (2. order) : 0.3339055E+02  (-0.6217623E+01)
 number of electron     409.9999956 magnetization 
 augmentation part       53.0753319 magnetization 

 Broyden mixing:
  rms(total) = 0.18438E+01    rms(broyden)= 0.18438E+01
  rms(prec ) = 0.21964E+01
  weight for this iteration     100.00

 eigenvalues of (default mixing * dielectric matrix)
  average eigenvalue GAMMA=   0.7052
  1.6262  0.4975  0.4975  0.1996

 Free energy of the ion-electron system (eV)
  ---------------------------------------------------
  alpha Z        PSCENC =       633.60512522
  Ewald energy   TEWEN  =     89083.67141846
  -Hartree energ DENC   =   -111956.75715731
  -exchange      EXHF   =         0.00000000
  -V(xc)+E(xc)   XCENC  =     -2757.72201421
  PAW double counting   =     30002.03240283   -25945.05749924
  entropy T*S    EENTRO =        -0.00056621
  eigenvalues    EBANDS =     -4568.56668531
  atomic energy  EATOM  =     24881.98434549
  Solvation  Ediel_sol  =         0.00000000
  ---------------------------------------------------
  free energy    TOTEN  =      -626.81063029 eV

  energy without entropy =     -626.81006407  energy(sigma->0) =     -626.81048873


--------------------------------------------------------------------------------------------------------




----------------------------------------- Iteration    1(  10)  ---------------------------------------


    POTLOK:  cpu time    0.0486: real time    0.0486
    SETDIJ:  cpu time    0.0066: real time    0.0066
    EDDIAG:  cpu time    0.9568: real time    0.9609
  RMM-DIIS:  cpu time    9.2989: real time    9.2990
    ORTHCH:  cpu time    0.2705: real time    0.2725
       DOS:  cpu time    0.0016: real time    0.0016
    CHARGE:  cpu time    0.2268: real time    0.2268
    MIXING:  cpu time    0.0022: real time    0.0022
    --------------------------------------------
      LOOP:  cpu time   10.8137: real time   10.8224

 eigenvalue-minimisations  :  3559
 total energy-change (2. order) : 0.6070903E+01  (-0.3872626E+01)
 number of electron     409.9999959 magnetization 
 augmentation part       56.2097286 magnetization 

 Broyden mixing:
  rms(total) = 0.10836E+01    rms(broyden)= 0.10836E+01
  rms(prec ) = 0.14400E+01
  weight for this iteration     100.00

 eigenvalues of (default mixing * dielectric matrix)
  average eigenvalue GAMMA=   0.7196
  1.8472  0.6099  0.6099  0.3421  0.1888

 Free energy of the ion-electron system (eV)
  ---------------------------------------------------
  alpha Z        PSCENC =       633.60512522
  Ewald energy   TEWEN  =     89083.67141846
  -Hartree energ DENC   =   -112026.13838676
  -exchange      EXHF   =         0.00000000
  -V(xc)+E(xc)   XCENC  =     -2753.13291586
  PAW double counting   =     30775.48849766   -26712.29222101
  entropy T*S    EENTRO =        -0.00325690
  eigenvalues    EBANDS =     -4503.92233313
  atomic energy  EATOM  =     24881.98434549
  Solvation  Ediel_sol  =         0.00000000
  ---------------------------------------------------
  free energy    TOTEN  =      -620.73972685 eV

  energy without entropy =     -620.73646994  energy(sigma->0) =     -620.73891262


--------------------------------------------------------------------------------------------------------




----------------------------------------- Iteration    1(  11)  ---------------------------------------


    POTLOK:  cpu time    0.0494: real time    0.0494
    SETDIJ:  cpu time    0.0082: real time    0.0082
    EDDIAG:  cpu time    0.9458: real time    0.9502
  RMM-DIIS:  cpu time    9.8641: real time    9.8645
    ORTHCH:  cpu time    0.2694: real time    0.2719
       DOS:  cpu time    0.0015: real time    0.0015
    CHARGE:  cpu time    0.2268: real time    0.2268
    MIXING:  cpu time    0.0023: real time    0.0023
    --------------------------------------------
      LOOP:  cpu time   11.3692: real time   11.3788

 eigenvalue-minimisations  :  3752
 total energy-change (2. order) :-0.1680514E+00  (-0.2665282E+01)
 number of electron     409.9999958 magnetization 
 augmentation part       56.6195750 magnetization 

 Broyden mixing:
  rms(total) = 0.10957E+01    rms(broyden)= 0.10957E+01
  rms(prec ) = 0.14473E+01
  weight for this iteration     100.00

 eigenvalues of (default mixing * dielectric matrix)
  average eigenvalue GAMMA=   0.6828
  1.9040  0.7752  0.5595  0.4110  0.1877  0.2594

 Free energy of the ion-electron system (eV)
  ---------------------------------------------------
  alpha Z        PSCENC =       633.60512522
  Ewald energy   TEWEN  =     89083.67141846
  -Hartree energ DENC   =   -112077.08269824
  -exchange      EXHF   =         0.00000000
  -V(xc)+E(xc)   XCENC  =     -2750.77427999
  PAW double counting   =     31419.89893754   -27353.94437071
  entropy T*S    EENTRO =        -0.00771149
  eigenvalues    EBANDS =     -4458.25854448
  atomic energy  EATOM  =     24881.98434549
  Solvation  Ediel_sol  =         0.00000000
  ---------------------------------------------------
  free energy    TOTEN  =      -620.90777820 eV

  energy without entropy =     -620.90006671  energy(sigma->0) =     -620.90585033


--------------------------------------------------------------------------------------------------------




----------------------------------------- Iteration    1(  12)  ---------------------------------------


    POTLOK:  cpu time    0.0486: real time    0.0486
    SETDIJ:  cpu time    0.0065: real time    0.0065
    EDDIAG:  cpu time    0.9461: real time    0.9492
  RMM-DIIS:  cpu time    9.5154: real time    9.5155
    ORTHCH:  cpu time    0.2657: real time    0.2732
       DOS:  cpu time    0.0015: real time    0.0015
    CHARGE:  cpu time    0.2265: real time    0.2265
    MIXING:  cpu time    0.0024: real time    0.0024
    --------------------------------------------
      LOOP:  cpu time   11.0147: real time   11.0279

 eigenvalue-minimisations  :  3618
 total energy-change (2. order) : 0.2593430E+01  (-0.9503888E+00)
 number of electron     409.9999959 magnetization 
 augmentation part       56.5602892 magnetization 

 Broyden mixing:
  rms(total) = 0.56259E+00    rms(broyden)= 0.56259E+00
  rms(prec ) = 0.75343E+00
  weight for this iteration     100.00

 eigenvalues of (default mixing * dielectric matrix)
  average eigenvalue GAMMA=   0.6795
  1.9711  0.9812  0.5196  0.5196  0.3477  0.1896  0.2279

 Free energy of the ion-electron system (eV)
  ---------------------------------------------------
  alpha Z        PSCENC =       633.60512522
  Ewald energy   TEWEN  =     89083.67141846
  -Hartree energ DENC   =   -112100.45733311
  -exchange      EXHF   =         0.00000000
  -V(xc)+E(xc)   XCENC  =     -2749.92413298
  PAW double counting   =     31619.71655245   -27552.03437138
  entropy T*S    EENTRO =        -0.00410819
  eigenvalues    EBANDS =     -4434.87184412
  atomic energy  EATOM  =     24881.98434549
[...]
  Fock        0.00000     0.00000     0.00000     0.00000     0.00000     0.00000
  -------------------------------------------------------------------------------------
  Total     -27.25685   -20.74274   -16.20637    -2.67304     5.65565    -0.84170
  in kB     -11.98549    -9.12108    -7.12633    -1.17540     2.48692    -0.37011
  external pressure =       -9.41 kB  Pullay stress =        0.00 kB


 VOLUME and BASIS-vectors are now :
 -----------------------------------------------------------------------------
  energy-cutoff  :      600.00
  volume of cell :     3643.60
      direct lattice vectors                 reciprocal lattice vectors
    13.771350861  0.000000000  0.000000000     0.072614518  0.000000000  0.000000000
     0.000000000  9.564481735  0.000000000     0.000000000  0.104553496  0.000000000
     0.000000000  0.000000000 27.662570434     0.000000000  0.000000000  0.036149931

  length of vectors
    13.771350861  9.564481735 27.662570434     0.072614518  0.104553496  0.036149931


 FORCES acting on ions
    electron-ion (+dipol)            ewald-force                    non-local-force                 convergence-correction
 -----------------------------------------------------------------------------------------------
   -.484E+02 -.350E+02 0.424E+03   0.482E+02 0.347E+02 -.423E+03   0.101E+00 0.993E-01 -.785E+00   -.217E-01 -.294E-02 -.186E-01
   -.292E+02 -.300E+02 -.372E+02   0.290E+02 0.302E+02 0.364E+02   0.206E+00 -.189E+00 0.845E+00   -.124E-01 0.375E-03 -.259E-01
   -.373E+02 0.232E+02 -.277E+03   0.408E+02 -.212E+02 0.275E+03   -.353E+01 -.196E+01 0.143E+01   -.102E-01 -.181E-02 -.748E-02
   0.495E+00 0.700E+01 0.249E+03   -.310E+00 -.679E+01 -.249E+03   -.207E+00 -.267E+00 -.127E+00   -.227E-01 0.211E-03 -.317E-01
   -.582E+02 0.844E+01 -.246E+02   0.579E+02 -.810E+01 0.243E+02   0.323E+00 -.335E+00 0.278E+00   0.119E-01 -.126E-02 -.261E-01
   -.450E+02 0.480E+01 0.368E+03   0.443E+02 -.419E+01 -.366E+03   0.681E+00 -.101E+01 -.226E+01   0.228E-01 -.511E-03 -.197E-01
   -.387E+03 0.682E+01 0.718E+03   0.386E+03 -.607E+01 -.720E+03   0.214E+00 -.385E+00 0.937E+00   -.467E-01 0.262E-01 -.131E+00
   -.350E+03 0.199E+03 -.131E+04   0.348E+03 -.197E+03 0.131E+04   0.175E+01 -.159E+01 0.291E+01   -.209E-01 0.838E-02 -.955E-02
   0.952E+02 -.883E+01 0.182E+04   -.948E+02 0.773E+01 -.182E+04   -.512E+00 0.593E+00 -.432E+01   -.752E-01 -.392E-02 -.601E-01
   0.126E+03 0.119E+02 -.380E+02   -.126E+03 -.117E+02 0.393E+02   0.576E+00 -.196E+00 -.116E+01   -.535E-01 0.909E-02 -.126E+00
   -.587E+02 0.141E+03 0.189E+04   0.596E+02 -.141E+03 -.189E+04   -.527E+00 -.404E+00 -.270E+01   -.101E+00 0.147E-01 -.755E-01
   0.413E+02 0.910E+02 -.530E+02   -.408E+02 -.916E+02 0.537E+02   -.456E+00 0.687E+00 -.554E+00   -.560E-01 -.262E-02 -.123E+00
   -.408E+03 -.213E+02 0.975E+03   0.409E+03 0.200E+02 -.973E+03   -.772E+00 0.164E+01 -.181E+01   -.308E-01 -.213E-01 -.139E+00
   -.378E+03 -.131E+03 -.119E+04   0.379E+03 0.130E+03 0.119E+04   -.981E+00 0.480E+00 0.213E+01   -.268E-01 -.654E-02 -.146E-01
   0.293E+03 -.119E+03 0.173E+04   -.293E+03 0.119E+03 -.173E+04   0.232E+00 -.343E+00 -.425E+01   -.512E-01 0.487E-01 -.718E-01
   0.369E+03 -.132E+03 -.528E+02   -.369E+03 0.132E+03 0.534E+02   0.258E+00 -.545E-01 -.446E+00   -.288E-01 0.139E-02 -.143E+00
   -.200E+02 0.860E+00 0.290E+03   0.195E+02 -.827E+00 -.290E+03   0.532E+00 -.315E-01 -.283E+00   -.267E-01 -.133E-02 -.572E-01
   -.357E+02 -.296E+02 -.506E+03   0.354E+02 0.293E+02 0.505E+03   0.313E+00 0.256E+00 0.124E+01   -.116E-01 0.284E-02 -.457E-02
   0.177E+03 -.964E+01 0.278E+03   -.176E+03 0.950E+01 -.278E+03   -.146E+01 0.693E+00 0.471E+00   0.642E-02 0.418E-02 -.682E-01
   0.186E+03 -.303E+02 -.461E+03   -.185E+03 0.316E+02 0.459E+03   -.122E+01 -.131E+01 0.259E+01   0.339E-02 -.187E-03 -.165E-01
   0.140E+03 -.473E+02 0.254E+02   -.140E+03 0.475E+02 -.256E+02   -.437E+00 -.195E+00 0.252E+00   0.303E-02 -.327E-02 -.484E-01
   0.117E+03 -.556E+02 0.527E+03   -.116E+03 0.557E+02 -.524E+03   -.882E+00 -.262E+00 -.267E+01   0.101E-01 0.138E-02 -.142E-01
   -.123E+03 0.651E+02 -.317E+02   0.123E+03 -.644E+02 0.315E+02   0.829E-01 -.671E+00 0.257E+00   -.811E-02 -.274E-02 -.367E-01
   -.100E+03 0.602E+02 0.578E+03   0.998E+02 -.596E+02 -.575E+03   0.431E+00 -.557E+00 -.287E+01   -.161E-01 0.690E-03 -.260E-01
   0.709E+02 -.195E+02 0.251E+03   -.717E+02 0.189E+02 -.251E+03   0.882E+00 0.849E+00 -.515E+00   -.226E-01 -.334E-03 -.508E-01
   0.175E+02 -.689E+02 -.405E+03   -.179E+02 0.670E+02 0.404E+03   0.428E+00 0.188E+01 0.148E+01   -.839E-02 0.254E-03 -.107E-01
   -.746E+02 0.140E+02 -.375E+03   0.745E+02 -.148E+02 0.373E+03   0.161E+00 0.795E+00 0.260E+01   0.219E-02 -.583E-03 -.339E-02
   -.161E+03 0.764E+01 0.267E+03   0.160E+03 -.751E+01 -.267E+03   0.321E+00 -.318E+00 -.948E-01   0.848E-02 -.559E-03 -.360E-01
   -.150E+03 -.504E+01 0.538E+03   0.149E+03 0.495E+01 -.535E+03   0.664E+00 -.783E-02 -.257E+01   0.902E-02 0.118E-01 -.265E-01
   -.195E+03 -.114E+02 -.536E+02   0.194E+03 0.112E+02 0.539E+02   0.113E+01 0.134E+00 -.294E+00   0.568E-02 -.134E-02 -.306E-01
   0.801E+02 0.706E+01 0.258E+03   -.803E+02 -.676E+01 -.258E+03   0.981E-02 -.581E-01 -.302E+00   -.241E-01 0.839E-03 -.483E-01
   0.311E+02 0.653E+02 -.441E+03   -.297E+02 -.637E+02 0.439E+03   -.144E+01 -.163E+01 0.233E+01   -.995E-02 -.211E-02 -.881E-02
   0.619E+02 0.636E+01 -.184E+02   -.625E+02 -.577E+01 0.169E+02   0.539E+00 -.581E+00 0.160E+01   -.150E-01 -.233E-02 -.423E-01
   0.336E+02 -.102E+01 0.559E+03   -.342E+02 0.993E+00 -.556E+03   0.606E+00 0.899E-02 -.245E+01   -.375E-01 -.227E-04 -.198E-01
   0.127E+03 0.119E+02 0.250E+03   -.126E+03 -.122E+02 -.250E+03   -.954E+00 0.593E+00 -.406E+00   -.121E-01 -.173E-02 -.491E-01
   0.882E+02 0.177E+02 -.401E+03   -.864E+02 -.165E+02 0.400E+03   -.177E+01 -.117E+01 0.155E+01   -.576E-02 0.285E-02 -.124E-01
   0.130E+03 0.104E+02 0.273E+03   -.130E+03 -.102E+02 -.272E+03   0.101E+00 -.433E+00 -.619E+00   0.860E-02 -.176E-02 -.526E-01
   0.825E+02 0.146E+02 -.354E+03   -.837E+02 -.158E+02 0.352E+03   0.126E+01 0.120E+01 0.225E+01   0.612E-02 0.156E-02 -.107E-01
   0.127E+03 0.393E+02 0.490E+03   -.127E+03 -.391E+02 -.487E+03   0.173E+00 -.397E+00 -.267E+01   0.965E-02 -.316E-05 -.190E-01
   0.151E+03 0.350E+02 0.168E+02   -.151E+03 -.340E+02 -.169E+02   -.179E+00 -.939E+00 0.233E+00   0.630E-02 0.263E-02 -.427E-01
   -.983E+02 -.163E+01 0.544E+03   0.985E+02 0.161E+01 -.541E+03   -.448E+00 0.356E-01 -.306E+01   0.116E-01 -.100E-01 -.244E-01
   -.150E+03 0.232E+01 -.279E+02   0.149E+03 -.233E+01 0.283E+02   0.386E+00 0.137E-01 -.396E+00   0.714E-02 0.207E-02 -.313E-01
   0.129E+03 0.294E+02 0.516E+03   -.129E+03 -.297E+02 -.513E+03   -.251E+00 0.373E+00 -.253E+01   -.117E-01 -.108E-01 -.201E-01
   0.143E+03 0.293E+02 0.271E+01   -.142E+03 -.295E+02 -.323E+01   -.712E+00 0.171E+00 0.569E+00   -.592E-02 0.607E-03 -.430E-01
   0.910E+02 -.760E+01 -.345E+03   -.912E+02 0.667E+01 0.343E+03   0.243E+00 0.935E+00 0.212E+01   -.107E-02 -.314E-02 -.147E-01
   0.120E+03 -.629E+01 0.288E+03   -.121E+03 0.596E+01 -.288E+03   0.588E+00 0.413E+00 -.157E+00   -.129E-01 0.997E-03 -.598E-01
   0.434E+02 0.220E+01 0.226E+03   -.433E+02 -.213E+01 -.227E+03   -.384E+00 -.384E-01 -.100E+00   0.193E-01 -.924E-03 -.466E-01
   0.332E+02 0.409E+01 -.340E+03   -.347E+02 -.312E+01 0.338E+03   0.141E+01 -.972E+00 0.215E+01   0.926E-02 0.252E-02 -.809E-02
   -.400E+02 -.290E+00 0.498E+03   0.402E+02 0.620E+00 -.495E+03   -.257E-01 -.270E+00 -.283E+01   0.191E-01 0.135E-02 -.204E-01
   -.569E+02 -.376E+01 -.158E+02   0.569E+02 0.367E+01 0.159E+02   -.135E-01 0.906E-01 -.102E+00   0.173E-01 0.110E-02 -.335E-01
   0.531E+02 -.327E+01 0.480E+03   -.531E+02 0.263E+01 -.477E+03   -.275E-01 0.210E+00 -.315E+01   0.267E-01 0.416E-02 -.220E-01
   0.594E+02 -.481E+01 -.439E+02   -.593E+02 0.411E+01 0.445E+02   -.172E+00 0.695E+00 -.530E+00   0.151E-01 0.119E-02 -.375E-01
   -.681E+02 -.295E+01 0.254E+03   0.682E+02 0.305E+01 -.255E+03   0.126E+00 0.207E+00 0.480E-01   0.246E-01 0.407E-02 -.430E-01
   -.417E+01 -.560E+02 -.325E+03   0.542E+01 0.549E+02 0.323E+03   -.126E+01 0.105E+01 0.190E+01   0.863E-02 0.138E-03 -.512E-02
   0.418E+02 0.140E+01 0.495E+03   -.411E+02 -.123E+01 -.491E+03   -.817E+00 -.323E+00 -.324E+01   0.267E-01 -.554E-02 -.172E-01
   0.496E+02 -.183E+01 -.111E+02   -.492E+02 0.205E+01 0.117E+02   -.466E+00 -.225E+00 -.508E+00   0.126E-01 -.169E-02 -.415E-01
   -.933E+02 0.442E+00 0.228E+03   0.929E+02 -.502E+00 -.229E+03   0.585E+00 0.161E+00 0.416E-01   0.216E-01 -.469E-02 -.444E-01
   -.666E+02 -.454E+01 -.391E+03   0.657E+02 0.340E+01 0.389E+03   0.937E+00 0.114E+01 0.233E+01   0.919E-02 -.185E-02 -.249E-03
   0.345E+02 0.341E+02 -.338E+03   -.335E+02 -.328E+02 0.337E+03   -.105E+01 -.131E+01 0.149E+01   0.824E-02 -.272E-02 -.786E-02
   0.550E+02 -.516E+01 0.262E+03   -.543E+02 0.507E+01 -.262E+03   -.715E+00 0.245E+00 0.123E-01   0.257E-01 0.717E-03 -.526E-01
   -.142E+03 -.432E+02 0.576E+03   0.141E+03 0.425E+02 -.572E+03   0.830E+00 0.629E-01 -.325E+01   -.104E-01 -.358E-03 -.224E-01
   -.149E+03 -.367E+02 -.244E+02   0.148E+03 0.363E+02 0.253E+02   0.177E+00 0.405E+00 -.863E+00   -.104E-01 0.203E-02 -.295E-01
   -.159E+03 0.465E+01 0.256E+03   0.158E+03 -.480E+01 -.257E+03   0.918E+00 0.415E+00 0.144E+00   0.868E-02 0.788E-03 -.431E-01
   -.137E+03 0.456E+01 -.375E+03   0.136E+03 -.437E+01 0.374E+03   0.399E+00 -.192E+00 0.153E+01   0.223E-02 -.966E-05 0.222E-02
   0.149E+03 0.713E+02 -.602E+03   -.149E+03 -.704E+02 0.607E+03   -.222E-01 -.936E+00 -.506E+01   -.156E-02 0.566E-02 -.179E-01
   -.697E+02 0.121E+02 -.807E+03   0.701E+02 -.149E+02 0.822E+03   -.499E+00 0.282E+01 -.150E+02   0.738E-02 -.209E-03 0.163E-01
   0.193E+03 0.196E+02 -.592E+03   -.194E+03 -.226E+02 0.597E+03   0.112E+01 0.292E+01 -.496E+01   0.125E-01 0.753E-02 -.196E-01
   -.415E+02 0.108E+02 -.727E+03   0.415E+02 -.847E+01 0.737E+03   -.350E-01 -.229E+01 -.964E+01   0.146E-01 -.876E-03 0.105E-01
   0.102E+03 -.335E+02 -.819E+03   -.102E+03 0.363E+02 0.838E+03   0.138E+00 -.279E+01 -.183E+02   0.421E-02 -.400E-02 0.262E-02
   0.769E+02 -.390E+02 -.927E+03   -.720E+02 0.375E+02 0.946E+03   -.483E+01 0.145E+01 -.189E+02   -.689E-02 -.233E-02 -.638E-03
   -.153E+03 -.529E+02 -.100E+04   0.154E+03 0.519E+02 0.102E+04   -.131E+01 0.999E+00 -.200E+02   -.421E-02 0.315E-02 0.237E-01
   0.504E+02 0.448E+02 -.972E+03   -.535E+02 -.470E+02 0.992E+03   0.313E+01 0.210E+01 -.200E+02   -.146E-01 0.565E-02 0.502E-02
   0.370E+02 -.218E+02 -.823E+03   -.381E+02 0.229E+02 0.841E+03   0.114E+01 -.117E+01 -.177E+02   0.488E-02 -.292E-02 0.137E-01
   0.398E+02 -.496E+02 -.945E+03   -.415E+02 0.549E+02 0.962E+03   0.173E+01 -.534E+01 -.171E+02   -.136E-01 0.813E-03 0.112E-01
   0.392E+02 0.120E+02 -.739E+03   -.421E+02 -.149E+02 0.748E+03   0.292E+01 0.294E+01 -.905E+01   -.109E-01 -.358E-02 -.686E-02
 -----------------------------------------------------------------------------------------------
   0.396E-01 0.132E+01 0.175E+03   -.654E-12 0.107E-13 -.330E-11   0.401E+00 -.139E+01 -.173E+03   -.429E+00 0.677E-01 -.239E+01
 
 
 POSITION                                       TOTAL-FORCE (eV/Angst)
 -----------------------------------------------------------------------------------
      8.57631      8.29685     10.39845        -0.078532     -0.164735      0.029084
      8.53539      3.82515     15.08042        -0.005213      0.000434     -0.008503
      8.73954      6.02494     17.05911         0.002647     -0.004158     -0.002683
      8.51616      0.79995     12.43874        -0.044600     -0.053757      0.062412
     13.43875      6.14036     15.27067         0.001446      0.000065      0.003763
     13.49094      1.15316     10.44749        -0.033262     -0.398149     -0.055798
     10.03344      3.28428     12.67411        -0.064833      0.396076     -0.583975
      9.98616      8.43659     17.27545        -0.001072     -0.007658     -0.000153
      7.12524      5.81577     10.15765        -0.159108     -0.510302      0.966027
      7.02160      1.34586     15.07464         0.002827     -0.004282      0.000499
      8.51222      3.28036     10.20450         0.277194      0.062639      0.834938
      8.46279      8.30866     14.96713         0.000336     -0.000698      0.004270
     10.22263      8.06723     12.77991         0.225828      0.368424     -0.354644
     10.20299      3.74870     17.34693        -0.000458     -0.001527      0.002496
      5.42664      8.10481     10.20639         0.305501      0.056441      0.872128
      5.32294      3.56183     15.09815         0.002488     -0.000585      0.003666
      8.52843      5.75423     12.65640        -0.062832     -0.000092     -0.357490
      8.53980      1.18555     17.54349         0.001195     -0.004838      0.001846
      3.84829      7.97317     12.47259        -0.510679      0.555337     -0.464180
      3.81955      3.35458     17.49103         0.000649     -0.002819     -0.000666
      3.83186      5.73458     14.65125        -0.000811     -0.000109      0.003538
      3.90063      0.73891     10.00000         0.438584     -0.199982      0.373490
     10.23052      6.09472     14.84180         0.002795     -0.001437     -0.001090
     10.19112      1.10470     10.13736        -0.205638     -0.013033      0.301016
      6.82945      7.99424     12.66670         0.038000      0.229763     -0.375379
      6.85004      3.73591     17.43799         0.000106     -0.000354     -0.002758
     11.47548      6.25175     17.36677         0.002543     -0.000195     -0.001204
     11.66772      1.05372     12.57547        -0.278097     -0.189117     -0.460221
     11.73919      3.33868     10.41199        -0.289920     -0.086853      0.592023
     11.73753      8.36107     15.25192        -0.002016      0.001918      0.000594
      7.18522      3.24644     12.75390        -0.245015      0.240252     -0.435315
      7.14375      8.10399     17.43790         0.000805      0.001623      0.005153
      6.83732      6.00771     14.87726         0.000065      0.003962      0.001396
      6.87795      0.97560     10.08695        -0.054322     -0.020200      0.234644
      5.51084      5.55012     12.48419         0.007842      0.272793     -0.641446
      5.52555      0.93932     17.50534         0.006372     -0.001763      0.002891
      3.51249      3.50019     12.83519         0.002651     -0.247240     -0.160546
      3.05229      8.70043     17.58444        -0.000479     -0.000722      0.002581
      3.46798      5.87237     10.40868         0.077396     -0.214578     -0.097560
      3.44028      1.33988     15.17154         0.001463      0.000693      0.000594
     11.91771      8.21633     10.24534        -0.197483      0.003419      0.721853
     11.95489      3.61738     15.07127         0.002553     -0.000471      0.002042
      5.24135      3.36543     10.32679         0.129918      0.084580      0.124769
      5.17418      8.43228     15.09991         0.000123     -0.001367      0.001690
      4.84940      6.22050     17.28226         0.001713      0.000858     -0.001136
      5.28930      0.99064     12.60849         0.213100      0.083306     -0.303061
      1.60538      5.84491     12.85122        -0.241104      0.027029     -0.625443
      1.32437      1.69540     17.55762         0.001230      0.000374     -0.002061
     13.72038      5.67134     10.18293         0.178476      0.062184      0.592550
     13.70494      1.06868     14.98705        -0.000822     -0.001576      0.003757
      1.63456      8.33987     10.36453         0.001153     -0.421234      0.114444
      1.59298      3.82472     15.31861         0.001575      0.000299      0.001480
     13.76831      3.16119     12.53308         0.221908      0.312961     -0.263691
     13.75041      8.30275     17.51445         0.004425      0.000895     -0.003473
      1.99440      3.17314     10.17666        -0.120693     -0.158158      0.625662
      1.90558      7.99878     15.10897         0.001690      0.001581      0.001375
     13.48051      8.37930     12.86886         0.238937      0.096672     -0.316721
     13.16689      4.10902     17.85845         0.000423     -0.000498      0.001655
      1.76852      5.96267     17.70979         0.000676      0.000671     -0.001553
      2.02729      0.87737     12.46815         0.006272      0.154170     -0.409495
     10.07171      5.79402     10.14663         0.156440     -0.561254      0.168024
     10.05804      1.24938     14.98608        -0.000805      0.001826      0.000664
     11.97051      5.66181     12.67660         0.005671      0.266449     -0.728111
     11.80130      1.32761     17.72215         0.005880      0.000479     -0.001143
      5.08148      8.40917     17.43543         0.000294     -0.004384     -0.000426
     13.45501      2.25020     18.71853         0.002991     -0.000610     -0.004083
      3.47639      1.20687     17.52778         0.000716     -0.000919      0.004417
     13.32248      6.25465     18.23729         0.007287      0.002780     -0.001152
      3.53956      5.05912     18.47129         0.003065      0.002691      0.002653
      5.49907      2.73153     18.45452        -0.002249     -0.000927     -0.005374
     10.18677      0.40972     18.63118         0.001306     -0.004720      0.004491
      7.07060      0.23534     18.51032         0.006229      0.001446     -0.003769
      1.72825      7.90290     18.70757         0.004154     -0.001811      0.004107
      8.53727      3.05307     18.35284         0.001488     -0.004008      0.000051
      6.96274      5.98523     17.69097         0.001620     -0.003971     -0.000433
 -----------------------------------------------------------------------------------
    total drift:                                0.011279     -0.004398      0.033001


--------------------------------------------------------------------------------------------------------



  FREE ENERGIE OF THE ION-ELECTRON SYSTEM (eV)
  ---------------------------------------------------
  free  energy   TOTEN  =      -617.45534024 eV

  energy  without entropy=     -617.44428792  energy(sigma->0) =     -617.45257716
 
 d Force = 0.7255205E-06[-0.110E-04, 0.125E-04]  d Energy =-0.1331087E-04 0.140E-04
 d Force =-0.2871859E+00[-0.287E+00,-0.287E+00]  d Ewald  =-0.2871859E+00 0.757E-07


--------------------------------------------------------------------------------------------------------


    POTLOK:  cpu time    0.0593: real time    0.0593


--------------------------------------------------------------------------------------------------------




--------------------------------------------------------------------------------------------------------


  
 reached required accuracy - stopping structural energy minimisation
     LOOP+:  cpu time   46.5146: real time   46.5725
    4ORBIT:  cpu time    0.0000: real time    0.0000

 total amount of memory used by VASP on root node    80534. kBytes
========================================================================

   base      :      30000. kBytes
   nonl-proj :      13998. kBytes
   fftplans  :       3278. kBytes
   grid      :       7939. kBytes
   one-center:         31. kBytes
   wavefun   :      25288. kBytes
 
  
  
 General timing and accounting informations for this job:
 ========================================================
  
                  Total CPU time used (sec):      543.957
                            User time (sec):      534.642
                          System time (sec):        9.315
                         Elapsed time (sec):      544.586
  
                   Maximum memory used (kb):      156964.
                   Average memory used (kb):           0.
  
                          Minor page faults:        41199
                          Major page faults:            0
                 Voluntary context switches:         4321
