 vasp.5.4.1 05Feb16 (build Mar 19 2020 08:54:17) complex                        
  
 executed on           IFC91_ompi date 2021.10.23  19:44:21
 running on   96 total cores
 distrk:  each k-point on   96 cores,    1 groups
 distr:  one band on NCORES_PER_BAND=  48 cores,    2 groups


--------------------------------------------------------------------------------------------------------


 INCAR:
 POTCAR:    PAW_PBE Al 04Jan2001                  
 POTCAR:    PAW_PBE Nb_sv 25May2007               
 POTCAR:    PAW_PBE Ta 17Jan2003                  
 POTCAR:    PAW_PBE Ti 08Apr2002                  
 POTCAR:   PAW_PBE Zr 08Apr2002                   
 POTCAR:    PAW_PBE O 08Apr2002                   

 ----------------------------------------------------------------------------- 
|                                                                             |
|           W    W    AA    RRRRR   N    N  II  N    N   GGGG   !!!           |
|           W    W   A  A   R    R  NN   N  II  NN   N  G    G  !!!           |
|           W    W  A    A  R    R  N N  N  II  N N  N  G       !!!           |
|           W WW W  AAAAAA  RRRRR   N  N N  II  N  N N  G  GGG   !            |
|           WW  WW  A    A  R   R   N   NN  II  N   NN  G    G                |
|           W    W  A    A  R    R  N    N  II  N    N   GGGG   !!!           |
|                                                                             |
|      For optimal performance we recommend to set                            |
|        NCORE= 4 - approx SQRT( number of cores)                             |
|      NCORE specifies how many cores store one orbital (NPAR=cpu/NCORE).     |
|      This setting can  greatly improve the performance of VASP for DFT.     |
|      The default, NPAR=number of cores might be grossly inefficient         |
|      on modern multi-core architectures or massively parallel machines.     |
|      Do your own testing !!!!                                               |
|      Unfortunately you need to use the default for GW and RPA calculations. |
|      (for HF NCORE is supported but not extensively tested yet)             |
|                                                                             |
 ----------------------------------------------------------------------------- 

 POTCAR:    PAW_PBE Al 04Jan2001                  
   VRHFIN =Al: s2p1                                                             
   LEXCH  = PE                                                                  
   EATOM  =    53.5387 eV,    3.9350 Ry                                         
                                                                                
   TITEL  = PAW_PBE Al 04Jan2001                                                
   LULTRA =        F    use ultrasoft PP ?                                      
   IUNSCR =        1    unscreen: 0-lin 1-nonlin 2-no                           
   RPACOR =    1.500    partial core radius                                     
   POMASS =   26.981; ZVAL   =    3.000    mass and valenz                      
   RCORE  =    1.900    outmost cutoff radius                                   
   RWIGS  =    2.650; RWIGS  =    1.402    wigner-seitz radius (au A)           
   ENMAX  =  240.300; ENMIN  =  180.225 eV                                      
   ICORE  =        2    local potential                                         
   LCOR   =        T    correct aug charges                                     
   LPAW   =        T    paw PP                                                  
   EAUG   =  291.052                                                            
   DEXC   =    0.000                                                            
   RMAX   =    1.939    core radius for proj-oper                               
   RAUG   =    1.300    factor for augmentation sphere                          
   RDEP   =    1.966    radius for radial grids                                 
   RDEPT  =    1.856    core radius for aug-charge                              
                                                                                
   Atomic configuration                                                         
    6 entries                                                                   
     n  l   j            E        occ.                                          
     1  0  0.50     -1511.1048   2.0000                                         
     2  0  0.50      -108.1629   2.0000                                         
     2  1  1.50       -69.6402   6.0000                                         
     3  0  0.50        -7.7528   2.0000                                         
     3  1  1.50        -2.7121   1.0000                                         
     3  2  2.50        -2.7212   0.0000                                         
   Description                                                                  
     l       E           TYP  RCUT    TYP  RCUT                                 
     0     -7.7528455     23  1.900                                             
     0     -3.3096929     23  1.900                                             
     1     -2.7120682     23  1.900                                             
     1     13.6058260     23  1.900                                             
     2     -2.7211652      7  1.900                                             
  local pseudopotential read in
  partial core-charges read in
  partial kinetic energy density read in
  atomic valenz-charges read in
  non local Contribution for L=           0  read in
    real space projection operators read in
  non local Contribution for L=           0  read in
    real space projection operators read in
  non local Contribution for L=           1  read in
    real space projection operators read in
  non local Contribution for L=           1  read in
    real space projection operators read in
    PAW grid and wavefunctions read in
 
   number of l-projection  operators is LMAX  =           4
   number of lm-projection operators is LMMAX =           8
 
 POTCAR:    PAW_PBE Nb_sv 25May2007               
   VRHFIN =Nb: 4p5s4d                                                           
   LEXCH  = PE                                                                  
   EATOM  =  1555.1913 eV,  114.3033 Ry                                         
                                                                                
   TITEL  = PAW_PBE Nb_sv 25May2007                                             
   LULTRA =        F    use ultrasoft PP ?                                      
   IUNSCR =        1    unscreen: 0-lin 1-nonlin 2-no                           
   RPACOR =    1.800    partial core radius                                     
   POMASS =   92.910; ZVAL   =   13.000    mass and valenz                      
   RCORE  =    2.400    outmost cutoff radius                                   
   RWIGS  =    2.400; RWIGS  =    1.270    wigner-seitz radius (au A)           
   ENMAX  =  293.235; ENMIN  =  219.927 eV                                      
   ICORE  =        3    local potential                                         
   LCOR   =        T    correct aug charges                                     
   LPAW   =        T    paw PP                                                  
   EAUG   =  455.659                                                            
   DEXC   =    0.000                                                            
   RMAX   =    2.456    core radius for proj-oper                               
   RAUG   =    1.300    factor for augmentation sphere                          
   RDEP   =    2.451    radius for radial grids                                 
   RDEPT  =    1.956    core radius for aug-charge                              
                                                                                
   Atomic configuration                                                         
   11 entries                                                                   
     n  l   j            E        occ.                                          
     1  0  0.50    -18805.2457   2.0000                                         
     2  0  0.50     -2630.2869   2.0000                                         
     2  1  1.50     -2348.4046   6.0000                                         
     3  0  0.50      -438.8757   2.0000                                         
     3  1  1.50      -346.7588   6.0000                                         
     3  2  2.50      -196.2560  10.0000                                         
     4  0  0.50       -58.3859   2.0000                                         
     5  0  0.50        -3.9816   1.0000                                         
     4  1  1.50       -34.5141   6.0000                                         
     4  2  2.50        -3.0408   4.0000                                         
     4  3  2.50        -1.3606   0.0000                                         
   Description                                                                  
     l       E           TYP  RCUT    TYP  RCUT                                 
     0    -58.3859094     23  2.200                                             
     0     -3.9816262     23  2.200                                             
     1    -34.5140738     23  2.200                                             
     1     13.6058260     23  2.200                                             
     2     -3.0408010     23  2.200                                             
     2     -0.1283038     23  2.200                                             
     3     -1.3605826     23  2.400                                             
  local pseudopotential read in
  partial core-charges read in
  partial kinetic energy density read in
  atomic valenz-charges read in
  non local Contribution for L=           0  read in
    real space projection operators read in
  non local Contribution for L=           0  read in
    real space projection operators read in
  non local Contribution for L=           1  read in
    real space projection operators read in
  non local Contribution for L=           1  read in
    real space projection operators read in
  non local Contribution for L=           2  read in
    real space projection operators read in
  non local Contribution for L=           2  read in
    real space projection operators read in
    PAW grid and wavefunctions read in
 
   number of l-projection  operators is LMAX  =           6
   number of lm-projection operators is LMMAX =          18
 
 POTCAR:    PAW_PBE Ta 17Jan2003                  
   VRHFIN =Ta:  6s5d                                                            
   LEXCH  = PE                                                                  
   EATOM  =   130.6506 eV,    9.6025 Ry                                         
                                                                                
   TITEL  = PAW_PBE Ta 17Jan2003                                                
   LULTRA =        F    use ultrasoft PP ?                                      
   IUNSCR =        1    unscreen: 0-lin 1-nonlin 2-no                           
   RPACOR =    2.330    partial core radius                                     
   POMASS =  180.948; ZVAL   =    5.000    mass and valenz                      
   RCORE  =    2.900    outmost cutoff radius                                   
   RWIGS  =    2.840; RWIGS  =    1.503    wigner-seitz radius (au A)           
   ENMAX  =  223.667; ENMIN  =  167.750 eV                                      
   RCLOC  =    2.205    cutoff for local pot                                    
   LCOR   =        T    correct aug charges                                     
   LPAW   =        T    paw PP                                                  
   EAUG   =  332.075                                                            
   DEXC   =    0.000                                                            
   RMAX   =    2.970    core radius for proj-oper                               
   RAUG   =    1.300    factor for augmentation sphere                          
   RDEP   =    3.060    radius for radial grids                                 
   RDEPT  =    2.354    core radius for aug-charge                              
                                                                                
   Atomic configuration                                                         
   16 entries                                                                   
     n  l   j            E        occ.                                          
     1  0  0.50    -67341.2807   2.0000                                         
     2  0  0.50    -11566.9376   2.0000                                         
     2  1  1.50    -10134.1182   6.0000                                         
     3  0  0.50     -2648.5620   2.0000                                         
     3  1  1.50     -2222.6012   6.0000                                         
     3  2  2.50     -1726.3120  10.0000                                         
     4  0  0.50      -538.6961   2.0000                                         
     4  1  1.50      -399.0129   6.0000                                         
     4  2  2.50      -220.3959  10.0000                                         
     4  3  3.50       -23.0374  14.0000                                         
     5  0  0.50       -71.2901   2.0000                                         
     5  1  1.50       -37.8225   6.0000                                         
     5  2  2.50        -2.6455   4.0000                                         
     6  0  0.50        -4.9623   1.0000                                         
     6  1  1.50        -1.3606   0.0000                                         
     5  3  2.50        -1.3606   0.0000                                         
   Description                                                                  
     l       E           TYP  RCUT    TYP  RCUT                                 
     2     -2.6455043     23  2.500                                             
     2     -0.6258895     23  2.500                                             
     0     -4.9622780     23  2.500                                             
     0      4.7531321     23  2.500                                             
     1     -1.3605826     23  2.900                                             
     1     27.2116520     23  2.900                                             
  local pseudopotential read in
  partial core-charges read in
  partial kinetic energy density read in
  atomic valenz-charges read in
  non local Contribution for L=           2  read in
    real space projection operators read in
  non local Contribution for L=           2  read in
    real space projection operators read in
  non local Contribution for L=           0  read in
    real space projection operators read in
  non local Contribution for L=           0  read in
    real space projection operators read in
  non local Contribution for L=           1  read in
    real space projection operators read in
  non local Contribution for L=           1  read in
    real space projection operators read in
    PAW grid and wavefunctions read in
 
   number of l-projection  operators is LMAX  =           6
   number of lm-projection operators is LMMAX =          18
 
 POTCAR:    PAW_PBE Ti 08Apr2002                  
   VRHFIN =Ti: d3 s1                                                            
   LEXCH  = PE                                                                  
   EATOM  =    94.7928 eV,    6.9671 Ry                                         
                                                                                
   TITEL  = PAW_PBE Ti 08Apr2002                                                
   LULTRA =        F    use ultrasoft PP ?                                      
   IUNSCR =        1    unscreen: 0-lin 1-nonlin 2-no                           
   RPACOR =    2.200    partial core radius                                     
   POMASS =   47.880; ZVAL   =    4.000    mass and valenz                      
   RCORE  =    2.800    outmost cutoff radius                                   
   RWIGS  =    2.500; RWIGS  =    1.323    wigner-seitz radius (au A)           
   ENMAX  =  178.330; ENMIN  =  133.747 eV                                      
   RCLOC  =    2.215    cutoff for local pot                                    
   LCOR   =        T    correct aug charges                                     
   LPAW   =        T    paw PP                                                  
   EAUG   =  328.883                                                            
   DEXC   =    0.000                                                            
   RMAX   =    2.868    core radius for proj-oper                               
   RAUG   =    1.300    factor for augmentation sphere                          
   RDEP   =    2.885    radius for radial grids                                 
   RDEPT  =    2.320    core radius for aug-charge                              
                                                                                
   Atomic configuration                                                         
    9 entries                                                                   
     n  l   j            E        occ.                                          
     1  0  0.50     -4865.3608   2.0000                                         
     2  0  0.50      -533.1367   2.0000                                         
     2  1  1.50      -440.5031   6.0000                                         
     3  0  0.50       -59.3186   2.0000                                         
     3  1  1.50       -35.7012   6.0000                                         
     3  2  2.50        -1.9157   3.0000                                         
     4  0  0.50        -3.7291   1.0000                                         
     4  1  1.50        -4.0817   0.0000                                         
     4  3  2.50        -1.3606   0.0000                                         
   Description                                                                  
     l       E           TYP  RCUT    TYP  RCUT                                 
     2     -1.9156924     23  2.800                                             
     2     -0.4062961     23  2.800                                             
     0     -3.7290832     23  2.800                                             
     0     20.4087390     23  2.800                                             
     1     -5.4423304     23  2.800                                             
  local pseudopotential read in
  partial core-charges read in
  partial kinetic energy density read in
  atomic valenz-charges read in
  non local Contribution for L=           2  read in
    real space projection operators read in
  non local Contribution for L=           2  read in
    real space projection operators read in
  non local Contribution for L=           0  read in
    real space projection operators read in
  non local Contribution for L=           0  read in
    real space projection operators read in
  non local Contribution for L=           1  read in
    real space projection operators read in
    PAW grid and wavefunctions read in
 
   number of l-projection  operators is LMAX  =           5
   number of lm-projection operators is LMMAX =          15
 
 POTCAR:   PAW_PBE Zr 08Apr2002                   
   VRHFIN =Zr: 5s4d5p                                                           
   LEXCH  = PE                                                                  
   EATOM  =    77.8472 eV,    5.7216 Ry                                         
                                                                                
   TITEL  = PAW_PBE Zr 08Apr2002                                                
   LULTRA =        F    use ultrasoft PP ?                                      
   IUNSCR =        1    unscreen: 0-lin 1-nonlin 2-no                           
   RPACOR =    2.200    partial core radius                                     
   POMASS =   91.224; ZVAL   =    4.000    mass and valenz                      
   RCORE  =    3.000    outmost cutoff radius                                   
   RWIGS  =    3.070; RWIGS  =    1.625    wigner-seitz radius (au A)           
   ENMAX  =  154.632; ENMIN  =  115.974 eV                                      
   RCLOC  =    2.213    cutoff for local pot                                    
   LCOR   =        T    correct aug charges                                     
   LPAW   =        T    paw PP                                                  
   EAUG   =  243.217                                                            
   DEXC   =    -.082                                                            
   RMAX   =    3.708    core radius for proj-oper                               
   RAUG   =    1.300    factor for augmentation sphere                          
   RDEP   =    3.146    radius for radial grids                                 
   QCUT   =   -3.371; QGAM   =    6.742    optimization parameters              
                                                                                
   Description                                                                  
     l     E      TYP  RCUT    TYP  RCUT                                        
     2   .000     23  3.000                                                     
     2   .000     23  3.000                                                     
     0   .000     23  3.000                                                     
     0  2.000     23  3.000                                                     
     1  -.400     23  3.000                                                     
     3   .000      7   .000                                                     
  local pseudopotential read in
  partial core-charges read in
  atomic valenz-charges read in
  non local Contribution for L=           2  read in
    real space projection operators read in
  non local Contribution for L=           2  read in
    real space projection operators read in
  non local Contribution for L=           0  read in
    real space projection operators read in
  non local Contribution for L=           0  read in
    real space projection operators read in
  non local Contribution for L=           1  read in
    real space projection operators read in
    PAW grid and wavefunctions read in
 
   number of l-projection  operators is LMAX  =           5
   number of lm-projection operators is LMMAX =          15
 
 POTCAR:    PAW_PBE O 08Apr2002                   
   VRHFIN =O: s2p4                                                              
   LEXCH  = PE                                                                  
   EATOM  =   432.3788 eV,   31.7789 Ry                                         
                                                                                
   TITEL  = PAW_PBE O 08Apr2002                                                 
   LULTRA =        F    use ultrasoft PP ?                                      
   IUNSCR =        1    unscreen: 0-lin 1-nonlin 2-no                           
   RPACOR =    1.200    partial core radius                                     
   POMASS =   16.000; ZVAL   =    6.000    mass and valenz                      
   RCORE  =    1.520    outmost cutoff radius                                   
   RWIGS  =    1.550; RWIGS  =    0.820    wigner-seitz radius (au A)           
   ENMAX  =  400.000; ENMIN  =  300.000 eV                                      
   ICORE  =        2    local potential                                         
   LCOR   =        T    correct aug charges                                     
   LPAW   =        T    paw PP                                                  
   EAUG   =  605.392                                                            
   DEXC   =    0.000                                                            
   RMAX   =    1.553    core radius for proj-oper                               
   RAUG   =    1.300    factor for augmentation sphere                          
   RDEP   =    1.550    radius for radial grids                                 
   RDEPT  =    1.329    core radius for aug-charge                              
                                                                                
   Atomic configuration                                                         
    4 entries                                                                   
     n  l   j            E        occ.                                          
     1  0  0.50      -514.6923   2.0000                                         
     2  0  0.50       -23.9615   2.0000                                         
     2  1  0.50        -9.0305   4.0000                                         
     3  2  1.50        -9.5241   0.0000                                         
   Description                                                                  
     l       E           TYP  RCUT    TYP  RCUT                                 
     0    -23.9615318     23  1.200                                             
     0     -9.5240782     23  1.200                                             
     1     -9.0304911     23  1.520                                             
     1      8.1634956     23  1.520                                             
     2     -9.5240782      7  1.500                                             
  local pseudopotential read in
  partial core-charges read in
  partial kinetic energy density read in
  kinetic energy density of atom read in
  atomic valenz-charges read in
  non local Contribution for L=           0  read in
    real space projection operators read in
  non local Contribution for L=           0  read in
    real space projection operators read in
  non local Contribution for L=           1  read in
    real space projection operators read in
  non local Contribution for L=           1  read in
    real space projection operators read in
    PAW grid and wavefunctions read in
 
   number of l-projection  operators is LMAX  =           4
   number of lm-projection operators is LMMAX =           8
 

 ----------------------------------------------------------------------------- 
|                                                                             |
|  ADVICE TO THIS USER RUNNING 'VASP/VAMP'   (HEAR YOUR MASTER'S VOICE ...):  |
|                                                                             |
|      You have a (more or less) 'large supercell' and for larger cells       |
|      it might be more efficient to use real space projection opertators     |
|      So try LREAL= Auto  in the INCAR   file.                               |
|      Mind: At the moment your POTCAR file does not contain real space       |
|       projectors, and has to be modified,  BUT if you                       |
|      want to do an extremely  accurate calculation you might also keep the  |
|      reciprocal projection scheme          (i.e. LREAL=.FALSE.)             |
|                                                                             |
 ----------------------------------------------------------------------------- 

 WARNING: PSMAXN for non-local potential too small
          PSMAXN should be >   12.5490833729506       NTYP=           5
  PAW_PBE Al 04Jan2001                  :
 energy of atom  1       EATOM=  -53.5387
 kinetic energy error for atom=    0.0002 (will be added to EATOM!!)
  PAW_PBE Nb_sv 25May2007               :
 energy of atom  2       EATOM=-1555.1913
 kinetic energy error for atom=    0.0037 (will be added to EATOM!!)
  PAW_PBE Ta 17Jan2003                  :
 energy of atom  3       EATOM= -130.6506
 kinetic energy error for atom=    0.0004 (will be added to EATOM!!)
  PAW_PBE Ti 08Apr2002                  :
 energy of atom  4       EATOM=  -94.7928
 kinetic energy error for atom=    0.0001 (will be added to EATOM!!)
 PAW_PBE Zr 08Apr2002                   :
 energy of atom  5       EATOM=  -77.8472
 kinetic energy error for atom=    0.0001 (will be added to EATOM!!)
  PAW_PBE O 08Apr2002                   :
 energy of atom  6       EATOM= -432.3788
 kinetic energy error for atom=    0.0168 (will be added to EATOM!!)
 
 
 POSCAR: Al Nb Ta Ti Zr                          
  positions in direct lattice
  velocities in cartesian coordinates
 exchange correlation table for  LEXCH =        8
   RHO(1)=    0.500       N(1)  =     2000
   RHO(2)=  100.500       N(2)  =     4000
 


--------------------------------------------------------------------------------------------------------


 ion  position               nearest neighbor table
   1  0.623  0.867  0.376-  34 2.83  25 2.88  24 2.88   9 2.88  13 2.90   4 2.91  61 2.93  15 3.16
                            41 3.35  17 3.40
   2  0.620  0.386  0.547-  14 2.77  31 2.78  23 2.79  33 2.81  26 2.81  10 2.84   7 2.91  62 2.98
                            18 3.13  16 3.17  17 3.22   3 3.25  42 3.41
   3  0.615  0.627  0.630-  32 2.72  14 2.79   8 2.85  26 2.87  23 2.93  33 2.95  27 3.12  45 3.19
                             2 3.25
   4  0.618  0.084  0.450-  31 2.80  24 2.86  34 2.87  13 2.88   1 2.91  25 2.92   7 2.92  10 2.94
                            62 2.99  12 3.12  28 3.16  46 3.24
   5  0.982  0.638  0.550-  30 2.76  42 2.88  27 2.90  56 2.93  63 3.01  52 3.01  47 3.02  54 3.06
                            58 3.20  59 3.22  57 3.28
   6  0.980  0.121  0.378-  29 2.80  28 2.80  53 2.91  41 2.96  51 3.05  55 3.05  60 3.08  57 3.37

   7  0.729  0.343  0.458-  28 2.77  29 2.83  31 2.85  17 2.89  11 2.90   2 2.91   4 2.92  62 3.03
                            63 3.07  42 3.09
   8  0.726  0.878  0.625-  71 2.05  32 2.67  27 2.69  30 2.70   3 2.85  12 2.85  18 2.87  64 3.24
                            62 3.39
   9  0.517  0.608  0.367-  35 2.84  15 2.85  17 2.87   1 2.88  11 2.89  61 2.95  43 3.10
  10  0.514  0.133  0.541-  18 2.82   2 2.84  36 2.84  16 2.84  12 2.93   4 2.94  31 2.97  46 2.97
                            62 3.11  44 3.13
  11  0.618  0.343  0.369-  24 2.75  34 2.83  31 2.87   9 2.89   7 2.90  61 2.96  43 3.27
  12  0.624  0.871  0.535-  32 2.59  13 2.61  25 2.79  23 2.80   8 2.85  62 2.93  10 2.93  33 2.93
                             4 3.12  44 3.39
  13  0.742  0.843  0.462-  12 2.61  17 2.87   4 2.88  30 2.90   1 2.90  28 2.94  63 2.98  23 3.04
                            41 3.05  57 3.27  62 3.43
  14  0.748  0.407  0.624-  27 2.67  42 2.77   2 2.77   3 2.79  18 2.95  64 2.99  23 3.09  58 3.14

  15  0.394  0.847  0.369-  22 2.68  19 2.76  25 2.83  34 2.84   9 2.85  39 2.98   1 3.16  46 3.43

  16  0.391  0.371  0.546-  21 2.64  26 2.81  20 2.81  10 2.84  33 2.84  40 2.92  37 2.95  31 2.99
                             2 3.17
  17  0.619  0.602  0.458-  25 2.81  33 2.83  31 2.85  23 2.85   9 2.87  13 2.87   7 2.89  61 2.95
                            35 3.03   2 3.22   1 3.40  63 3.44
  18  0.633  0.146  0.624-  71 2.09  62 2.79  26 2.81  10 2.82   8 2.87  32 2.87  14 2.95   2 3.13
                            36 3.15  64 3.22
  19  0.279  0.834  0.451-  15 2.76  35 2.94  46 2.96  39 2.97  44 2.97  25 2.99  60 3.07  51 3.08
                            47 3.12  56 3.20  21 3.29
  20  0.281  0.353  0.632-  69 1.99  70 2.05  67 2.21  16 2.81  36 2.92  48 3.06  52 3.06  26 3.09
                            40 3.09  45 3.18  59 3.23
  21  0.281  0.596  0.537-  16 2.64  35 2.88  44 2.96  52 2.98  37 3.01  47 3.03  45 3.03  33 3.03
                            56 3.14  59 3.24  19 3.29
  22  0.283  0.077  0.361-  15 2.68  46 2.97  43 2.97  34 2.99  51 3.02  55 3.10  60 3.10
  23  0.735  0.627  0.542-  30 2.77   2 2.79  12 2.80  27 2.80  17 2.85   3 2.93  42 2.95  63 2.99
                            13 3.04  14 3.09
  24  0.740  0.115  0.366-  29 2.73  11 2.75  28 2.85   4 2.86   1 2.88  41 3.00
  25  0.496  0.836  0.458-  35 2.78  12 2.79  17 2.81  15 2.83   1 2.88   4 2.92  44 2.94  19 2.99
                            46 2.99  33 3.06
  26  0.505  0.373  0.631-  70 1.94  18 2.81  16 2.81   2 2.81   3 2.87  36 2.89  20 3.09  45 3.13

  27  0.841  0.651  0.629-  68 2.18  14 2.67   8 2.69  58 2.76  23 2.80   5 2.90  30 2.93  54 3.00
                             3 3.12  42 3.47
  28  0.847  0.110  0.455-  62 2.74   7 2.77   6 2.80  24 2.85  57 2.90  13 2.94  53 2.98  29 3.15
                             4 3.16  50 3.18  41 3.36
  29  0.852  0.349  0.376-  24 2.73   6 2.80   7 2.83  53 2.94  61 2.98  49 3.07  28 3.15  63 3.25

  30  0.853  0.859  0.551-   8 2.70   5 2.76  23 2.77  54 2.84  13 2.90  27 2.93  57 2.94  62 3.03
                            50 3.13
  31  0.522  0.339  0.461-   2 2.78   4 2.80  17 2.85   7 2.85  35 2.86  11 2.87  46 2.95  10 2.97
                            16 2.99  43 3.11
  32  0.533  0.884  0.617-  65 2.02  12 2.59   8 2.67   3 2.72  36 2.77  18 2.87  44 2.92  45 3.05

  33  0.500  0.622  0.540-   2 2.81  17 2.83  16 2.84  35 2.85  44 2.91  12 2.93   3 2.95  45 2.99
                            21 3.03  25 3.06
  34  0.499  0.102  0.365-  11 2.83   1 2.83  15 2.84   4 2.87  43 2.91  46 2.98  22 2.99
  35  0.400  0.580  0.451-  25 2.78   9 2.84  33 2.85  31 2.86  37 2.88  21 2.88  39 2.93  19 2.94
                            17 3.03  43 3.08
  36  0.406  0.106  0.628-  70 2.02  67 2.08  65 2.13  32 2.77  10 2.84  26 2.89  20 2.92  38 2.93
                            40 3.04  18 3.15  44 3.23
  37  0.255  0.366  0.464-  35 2.88  16 2.95  21 3.01  47 3.02  60 3.04  43 3.05  55 3.08  46 3.08
                            52 3.17  40 3.21  39 3.39
  38  0.242  0.910  0.625-  65 2.05  67 2.08  56 2.80  44 2.91  36 2.93  59 2.99  40 3.02  48 3.13
                            45 3.17  54 3.41
  39  0.252  0.614  0.376-  35 2.93  19 2.97  15 2.98  47 3.07  43 3.07  51 3.07  55 3.08  37 3.39
                            49 3.53
  40  0.253  0.138  0.549-  67 2.40  16 2.92  38 3.02  36 3.04  52 3.07  44 3.08  20 3.09  60 3.13
                            46 3.17  37 3.21  56 3.22  48 3.23  50 3.58
  41  0.865  0.859  0.370-   6 2.96  24 3.00  61 3.05  13 3.05  57 3.06  49 3.12   1 3.35  28 3.36
                            51 3.49  63 3.53
  42  0.868  0.385  0.545-  14 2.77   5 2.88  23 2.95  62 3.04   7 3.09  63 3.10  58 3.11  50 3.11
                            53 3.16   2 3.41  27 3.47  52 3.49  64 3.50
  43  0.381  0.352  0.373-  34 2.91  22 2.97  37 3.05  39 3.07  35 3.08   9 3.10  31 3.11  55 3.26
                            11 3.27  46 3.29
  44  0.378  0.871  0.545-  65 2.42  38 2.91  33 2.91  32 2.92  25 2.94  21 2.96  19 2.97  40 3.08
                            10 3.13  45 3.18  36 3.23  46 3.33  56 3.35  12 3.39
  45  0.384  0.650  0.632-  69 2.13  65 2.26  33 2.99  21 3.03  32 3.05  26 3.13  38 3.17  20 3.18
                            44 3.18   3 3.19  59 3.27
  46  0.384  0.104  0.456-  31 2.95  19 2.96  22 2.97  10 2.97  34 2.98  25 2.99  37 3.08  40 3.17
                             4 3.24  60 3.27  43 3.29  44 3.33  15 3.43
  47  0.117  0.611  0.465-  37 3.02   5 3.02  21 3.03  39 3.07  19 3.12  56 3.12  53 3.14  49 3.15
                            57 3.17  52 3.28  63 3.42  51 3.52  55 3.80
  48  0.102  0.165  0.638-  66 2.09  67 2.17  50 3.03  20 3.06  38 3.13  52 3.15  58 3.16  54 3.17
                            40 3.23  64 3.27
  49  0.996  0.593  0.368-  63 3.05  29 3.07  41 3.12  47 3.15  51 3.16  55 3.23  53 3.44  39 3.53
                            61 3.65  57 3.82
  50  0.994  0.115  0.543-  48 3.03  42 3.11  30 3.13  57 3.15  28 3.18  52 3.21  56 3.22  54 3.24
                            53 3.24  64 3.25  60 3.33  62 3.51  40 3.58
  51  0.119  0.872  0.375-  60 3.00  22 3.02   6 3.05  39 3.07  19 3.08  57 3.16  49 3.16  41 3.49
                            47 3.52
  52  0.120  0.394  0.556-  21 2.98   5 3.01  20 3.06  40 3.07  59 3.11  48 3.15  37 3.17  58 3.17
                            50 3.21  47 3.28  53 3.36  42 3.49
  53  1.000  0.331  0.453-   6 2.91  29 2.94  28 2.98  60 3.06  63 3.08  55 3.09  47 3.14  42 3.16
                            50 3.24  52 3.36  49 3.44
  54  0.996  0.872  0.625-  68 2.19  30 2.84  27 3.00  56 3.02   5 3.06  59 3.11  48 3.17  64 3.23
                            50 3.24  38 3.41
  55  0.145  0.332  0.368-   6 3.05  37 3.08  39 3.08  53 3.09  22 3.10  49 3.23  60 3.24  43 3.26
                            47 3.80
  56  0.136  0.848  0.541-  38 2.80   5 2.93  54 3.02  57 3.03  47 3.12  21 3.14  19 3.20  50 3.22
                            40 3.22  59 3.27  44 3.35  60 3.43
  57  0.979  0.876  0.465-  28 2.90  30 2.94  56 3.03  41 3.06  63 3.11  60 3.13  50 3.15  51 3.16
                            47 3.17  13 3.27   5 3.28   6 3.37  49 3.82
  58  0.972  0.437  0.643-  66 2.09  68 2.18  27 2.76  59 3.06  42 3.11  64 3.14  14 3.14  48 3.16
                            52 3.17   5 3.20
  59  0.147  0.631  0.633-  69 2.13  68 2.28  38 2.99  58 3.06  54 3.11  52 3.11   5 3.22  20 3.23
                            21 3.24  56 3.27  45 3.27
  60  0.147  0.092  0.451-  51 3.00  37 3.04  53 3.06  19 3.07   6 3.08  22 3.10  40 3.13  57 3.13
                            55 3.24  46 3.27  50 3.33  56 3.43
  61  0.731  0.606  0.367-   1 2.93  17 2.95   9 2.95  11 2.96  29 2.98  41 3.05  63 3.17  49 3.65

  62  0.740  0.127  0.538-  28 2.74  18 2.79  12 2.93   2 2.98   4 2.99   7 3.03  30 3.03  42 3.04
                            10 3.11  64 3.33   8 3.39  13 3.43  50 3.51
  63  0.869  0.592  0.458-  13 2.98  23 2.99   5 3.01  49 3.05   7 3.07  53 3.08  42 3.10  57 3.11
                            61 3.17  29 3.25  47 3.42  17 3.44  41 3.53
  64  0.864  0.147  0.641-  71 2.07  66 2.12  14 2.99  58 3.14  18 3.22  54 3.23   8 3.24  50 3.25
                            48 3.27  62 3.33  42 3.50
  65  0.389  0.886  0.633-  32 2.02  38 2.05  36 2.13  45 2.26  44 2.42
  66  0.984  0.242  0.677-  48 2.09  58 2.09  64 2.12
  67  0.256  0.124  0.636-  38 2.08  36 2.08  48 2.17  20 2.21  40 2.40
  68  0.989  0.660  0.656-  27 2.18  58 2.18  54 2.19  59 2.28
  69  0.271  0.536  0.666-  20 1.99  45 2.13  59 2.13
  70  0.402  0.284  0.668-  26 1.94  36 2.02  20 2.05
  71  0.739  0.053  0.667-   8 2.05  64 2.07  18 2.09
 
  LATTYP: Found a simple orthorhombic cell.
 ALAT       =     9.5644817352
 B/A-ratio  =     1.4398428730
 C/A-ratio  =     2.8922184390
  
  Lattice vectors:
  
 A1 = (   0.0000000000,  -9.5644817352,   0.0000000000)
 A2 = ( -13.7713508606,   0.0000000000,   0.0000000000)
 A3 = (   0.0000000000,   0.0000000000, -27.6625704340)


Analysis of symmetry for initial positions (statically):
=====================================================================
 Subroutine PRICEL returns:
 Original cell was already a primitive cell.
 

 Routine SETGRP: Setting up the symmetry group for a 
 simple orthorhombic supercell.


 Subroutine GETGRP returns: Found  1 space group operations
 (whereof  1 operations were pure point group operations)
 out of a pool of  8 trial point group operations.


The static configuration has the point symmetry C_1 .


Analysis of symmetry for dynamics (positions and initial velocities):
=====================================================================
 Subroutine PRICEL returns:
 Original cell was already a primitive cell.
 

 Routine SETGRP: Setting up the symmetry group for a 
 simple orthorhombic supercell.


 Subroutine GETGRP returns: Found  1 space group operations
 (whereof  1 operations were pure point group operations)
 out of a pool of  8 trial point group operations.


The dynamic configuration has the point symmetry C_1 .


Analysis of constrained symmetry for selective dynamics:
=====================================================================
 Subroutine PRICEL returns:
 Original cell was already a primitive cell.
 

 Routine SETGRP: Setting up the symmetry group for a 
 simple orthorhombic supercell.


 Subroutine GETGRP returns: Found  1 space group operations
 (whereof  1 operations were pure point group operations)
 out of a pool of  8 trial point group operations.


The constrained configuration has the point symmetry C_1 .


 Subroutine INISYM returns: Found  1 space group operations
 (whereof  1 operations are pure point group operations),
 and found     1 'primitive' translations

 
 
 KPOINTS: k-points                                

Automatic generation of k-mesh.
Space group operators:
 irot       det(A)        alpha          n_x          n_y          n_z        tau_x        tau_y        tau_z
    1     1.000000     0.000000     1.000000     0.000000     0.000000     0.000000     0.000000     0.000000
 
 Subroutine IBZKPT returns following result:
 ===========================================
 
 Found      5 irreducible k-points:
 
 Following reciprocal coordinates:
            Coordinates               Weight
  0.000000  0.000000  0.000000      1.000000
  0.333333  0.000000  0.000000      2.000000
  0.000000  0.333333  0.000000      2.000000
  0.333333  0.333333  0.000000      2.000000
 -0.333333  0.333333  0.000000      2.000000
 
 Following cartesian coordinates:
            Coordinates               Weight
  0.000000  0.000000  0.000000      1.000000
  0.024205  0.000000  0.000000      2.000000
  0.000000  0.034851  0.000000      2.000000
  0.024205  0.034851  0.000000      2.000000
 -0.024205  0.034851  0.000000      2.000000
 


--------------------------------------------------------------------------------------------------------




 Dimension of arrays:
   k-points           NKPTS =      5   k-points in BZ     NKDIM =      5   number of bands    NBANDS=    232
   number of dos      NEDOS =    301   number of ions     NIONS =     71
   non local maximal  LDIM  =      6   non local SUM 2l+1 LMDIM =     18
   total plane-waves  NPLWV = 846720
   max r-space proj   IRMAX =      1   max aug-charges    IRDMAX=  25433
   dimension x,y,z NGX =    84 NGY =   60 NGZ =  168
   dimension x,y,z NGXF=   168 NGYF=  120 NGZF=  336
   support grid    NGXF=   168 NGYF=  120 NGZF=  336
   ions per type =               6  10   4  18  26   7
 NGX,Y,Z   is equivalent  to a cutoff of  10.14, 10.43, 10.10 a.u.
 NGXF,Y,Z  is equivalent  to a cutoff of  20.28, 20.86, 20.19 a.u.


 I would recommend the setting:
   dimension x,y,z NGX =    83 NGY =   57 NGZ =  166
 SYSTEM =  (110) surface                           
 POSCAR =  Al Nb Ta Ti Zr                          

 Startparameter for this run:
   NWRITE =      2    write-flag & timer
   PREC   = normal    normal or accurate (medium, high low for compatibility)
   ISTART =      0    job   : 0-new  1-cont  2-samecut
   ICHARG =      2    charge: 1-file 2-atom 10-const
   ISPIN  =      1    spin polarized calculation?
   LNONCOLLINEAR =      F non collinear calculations
   LSORBIT =      F    spin-orbit coupling
   INIWAV =      1    electr: 0-lowe 1-rand  2-diag
   LASPH  =      F    aspherical Exc in radial PAW
   METAGGA=      F    non-selfconsistent MetaGGA calc.

 Electronic Relaxation 1
   ENCUT  =  600.0 eV  44.10 Ry    6.64 a.u.  27.50 19.10 55.25*2*pi/ulx,y,z
   ENINI  =  600.0     initial cutoff
   ENAUG  =  605.4 eV  augmentation charge cutoff
   NELM   =     60;   NELMIN=  2; NELMDL= -5     # of ELM steps 
   EDIFF  = 0.1E-03   stopping-criterion for ELM
   LREAL  =      F    real-space projection
   NLSPLINE    = F    spline interpolate recip. space projectors
   LCOMPAT=      F    compatible to vasp.4.4
   GGA_COMPAT  = T    GGA compatible to vasp.4.4-vasp.4.6
   LMAXPAW     = -100 max onsite density
   LMAXMIX     =    2 max onsite mixed and CHGCAR
   VOSKOWN=      0    Vosko Wilk Nusair interpolation
   ROPT   =    0.00000   0.00000   0.00000   0.00000
   ROPT   =    0.00000   0.00000
 Ionic relaxation
   EDIFFG = -.1E-01   stopping-criterion for IOM
   NSW    =    150    number of steps for IOM
   NBLOCK =      1;   KBLOCK =    150    inner block; outer block 
   IBRION =      2    ionic relax: 0-MD 1-quasi-New 2-CG
   NFREE  =      1    steps in history (QN), initial steepest desc. (CG)
   ISIF   =      2    stress and relaxation
   IWAVPR =     11    prediction:  0-non 1-charg 2-wave 3-comb
   ISYM   =      2    0-nonsym 1-usesym 2-fastsym
   LCORR  =      T    Harris-Foulkes like correction to forces

   POTIM  = 0.1000    time-step for ionic-motion
   TEIN   =    0.0    initial temperature
   TEBEG  =    0.0;   TEEND  =   0.0 temperature during run
   SMASS  =  -3.00    Nose mass-parameter (am)
   estimated Nose-frequenzy (Omega)   =  0.10E-29 period in steps =****** mass=  -0.433E-26a.u.
   SCALEE = 1.0000    scale energy and forces
   NPACO  =    256;   APACO  = 16.0  distance and # of slots for P.C.
   PSTRESS=    0.0 pullay stress

  Mass of Ions in am
   POMASS =  26.98 92.91180.95 47.88 91.22 16.00
  Ionic Valenz
   ZVAL   =   3.00 13.00  5.00  4.00  4.00  6.00
  Atomic Wigner-Seitz radii
   RWIGS  =  -1.00 -1.00 -1.00 -1.00 -1.00 -1.00
  virtual crystal weights 
   VCA    =   1.00  1.00  1.00  1.00  1.00  1.00
   NELECT =     386.0000    total number of electrons
   NUPDOWN=      -1.0000    fix difference up-down

 DOS related values:
   EMIN   =  10.00;   EMAX   =-10.00  energy-range for DOS
   EFERMI =   0.00
   ISMEAR =     2;   SIGMA  =   0.10  broadening in eV -4-tet -1-fermi 0-gaus

 Electronic relaxation 2 (details)
   IALGO  =     68    algorithm
   LDIAG  =      T    sub-space diagonalisation (order eigenvalues)
   LSUBROT=      F    optimize rotation matrix (better conditioning)
   TURBO    =      0    0=normal 1=particle mesh
   IRESTART =      0    0=no restart 2=restart with 2 vectors
   NREBOOT  =      0    no. of reboots
   NMIN     =      0    reboot dimension
   EREF     =   0.00    reference energy to select bands
   IMIX   =      4    mixing-type and parameters
     AMIX     =   0.40;   BMIX     =  1.00
     AMIX_MAG =   1.60;   BMIX_MAG =  1.00
     AMIN     =   0.10
     WC   =   100.;   INIMIX=   1;  MIXPRE=   1;  MAXMIX= -45

 Intra band minimization:
   WEIMIN = 0.0010     energy-eigenvalue tresh-hold
   EBREAK =  0.11E-06  absolut break condition
   DEPER  =   0.30     relativ break condition  

   TIME   =   0.40     timestep for ELM

  volume/ion in A,a.u.               =      51.32       346.31
  Fermi-wavevector in a.u.,A,eV,Ry     =   0.774629  1.463837  8.164177  0.600050
  Thomas-Fermi vector in A             =   1.876726
 
 Write flags
   LWAVE  =      F    write WAVECAR
   LCHARG =      F    write CHGCAR
   LVTOT  =      F    write LOCPOT, total local potential
   LVHAR  =      F    write LOCPOT, Hartree potential only
   LELF   =      F    write electronic localiz. function (ELF)
   LORBIT =      0    0 simple, 1 ext, 2 COOP (PROOUT)


 Dipole corrections
   LMONO  =      F    monopole corrections only (constant potential shift)
   LDIPOL =      F    correct potential (dipole corrections)
   IDIPOL =      0    1-x, 2-y, 3-z, 4-all directions 
   EPSILON=  1.0000000 bulk dielectric constant

 Exchange correlation treatment:
   GGA     =    --    GGA type
   LEXCH   =     8    internal setting for exchange type
   VOSKOWN=      0    Vosko Wilk Nusair interpolation
   LHFCALC =     F    Hartree Fock is set to
   LHFONE  =     F    Hartree Fock one center treatment
   AEXX    =    0.0000 exact exchange contribution

 Linear response parameters
   LEPSILON=     F    determine dielectric tensor
   LRPA    =     F    only Hartree local field effects (RPA)
   LNABLA  =     F    use nabla operator in PAW spheres
   LVEL    =     F    velocity operator in full k-point grid
   LINTERFAST=   F  fast interpolation
   KINTER  =     0    interpolate to denser k-point grid
   CSHIFT  =0.1000    complex shift for real part using Kramers Kronig
   OMEGAMAX=  -1.0    maximum frequency
   DEG_THRESHOLD= 0.2000000E-02 threshold for treating states as degnerate
   RTIME   =    0.100 relaxation time in fs

 Orbital magnetization related:
   ORBITALMAG=     F  switch on orbital magnetization
   LCHIMAG   =     F  perturbation theory with respect to B field
   DQ        =  0.001000  dq finite difference perturbation B field



--------------------------------------------------------------------------------------------------------


 conjugate gradient relaxation of ions
   using selective dynamics as specified on POSCAR
 charge density and potential will be updated during run
 non-spin polarized calculation
 RMM-DIIS sequential band-by-band and
  variant of blocked Davidson during initial phase
 perform sub-space diagonalisation
    before iterative eigenvector-optimisation
 modified Broyden-mixing scheme, WC =      100.0
 initial mixing is a Kerker type mixing with AMIX =  0.4000 and BMIX =      1.0000
 Hartree-type preconditioning will be used
 using additional bands           39
 reciprocal scheme for non local part
 use partial core corrections
 calculate Harris-corrections to forces 
   (improved forces if not selfconsistent)
 use gradient corrections 
 use of overlap-Matrix (Vanderbilt PP)
 Methfessel and Paxton  Order N= 2 SIGMA  =   0.10


--------------------------------------------------------------------------------------------------------


  energy-cutoff  :      600.00
  volume of cell :     3643.60
      direct lattice vectors                 reciprocal lattice vectors
    13.771350861  0.000000000  0.000000000     0.072614518  0.000000000  0.000000000
     0.000000000  9.564481735  0.000000000     0.000000000  0.104553496  0.000000000
     0.000000000  0.000000000 27.662570434     0.000000000  0.000000000  0.036149931

  length of vectors
    13.771350861  9.564481735 27.662570434     0.072614518  0.104553496  0.036149931


 
 k-points in units of 2pi/SCALE and weight: k-points                                
   0.00000000  0.00000000  0.00000000       0.111
   0.02420484  0.00000000  0.00000000       0.222
   0.00000000  0.03485117  0.00000000       0.222
   0.02420484  0.03485117  0.00000000       0.222
  -0.02420484  0.03485117  0.00000000       0.222
 
 k-points in reciprocal lattice and weights: k-points                                
   0.00000000  0.00000000  0.00000000       0.111
   0.33333333  0.00000000  0.00000000       0.222
   0.00000000  0.33333333  0.00000000       0.222
   0.33333333  0.33333333  0.00000000       0.222
  -0.33333333  0.33333333  0.00000000       0.222
 
 position of ions in fractional coordinates (direct lattice) 
   0.62276447  0.86746430  0.37590333
   0.62049747  0.38629663  0.54714512
   0.61537030  0.62712881  0.63013324
   0.61839700  0.08363760  0.44965952
   0.98161676  0.63761768  0.55030653
   0.97963780  0.12056648  0.37767599
   0.72857308  0.34338307  0.45816820
   0.72601501  0.87799828  0.62479771
   0.51739597  0.60805875  0.36719826
   0.51384157  0.13275459  0.54095578
   0.61811078  0.34297293  0.36889183
   0.62364328  0.87120734  0.53516108
   0.74231148  0.84345710  0.46199300
   0.74774756  0.40684108  0.62420977
   0.39405298  0.84738672  0.36896032
   0.39070152  0.37073089  0.54640404
   0.61928761  0.60162497  0.45752798
   0.63321571  0.14610830  0.62350796
   0.27944195  0.83362269  0.45088327
   0.28072194  0.35259428  0.63171472
   0.28108555  0.59587239  0.53690799
   0.28324246  0.07725573  0.36149931
   0.73503499  0.62684196  0.54248528
   0.74002355  0.11549973  0.36646499
   0.49591756  0.83582580  0.45790018
   0.50453266  0.37270304  0.63059168
   0.84140543  0.65137431  0.62852159
   0.84724605  0.11017048  0.45460239
   0.85243583  0.34907103  0.37639265
   0.85345310  0.85912247  0.55102659
   0.52175105  0.33942658  0.46105252
   0.53313053  0.88350815  0.61721747
   0.50001155  0.62245482  0.54046068
   0.49943882  0.10200214  0.36464270
   0.40016663  0.58028412  0.45130253
   0.40606155  0.10631648  0.62805178
   0.25505811  0.36595738  0.46399110
   0.24221678  0.91044106  0.62489999
   0.25182599  0.61397660  0.37627308
   0.25345631  0.13769602  0.54927278
   0.86539888  0.85904646  0.37036829
   0.86824337  0.38472281  0.54455273
   0.38059813  0.35186696  0.37331264
   0.37806883  0.87083176  0.54548258
   0.38445769  0.65013487  0.63162178
   0.38408008  0.10357511  0.45579618
   0.11657381  0.61110574  0.46457054
   0.10154707  0.16498664  0.63755047
   0.99629861  0.59295863  0.36811234
   0.99392296  0.11487115  0.54348824
   0.11869311  0.87196302  0.37467704
   0.12032783  0.39435877  0.55633716
   0.99977952  0.33051389  0.45306987
   0.99622441  0.87190229  0.62522664
   0.14482272  0.33176249  0.36788561
   0.13556916  0.84762737  0.54144141
   0.97888047  0.87608504  0.46520830
   0.97173930  0.43658639  0.64274218
   0.14714199  0.63071152  0.63264809
   0.14721048  0.09173214  0.45072276
   0.73135245  0.60578495  0.36679988
   0.73967317  0.12734601  0.53791717
   0.86923259  0.59196168  0.45825814
   0.86419835  0.14749281  0.64101716
   0.38942023  0.88579303  0.63253084
   0.98372618  0.24182500  0.67674288
   0.25631578  0.12427918  0.63575936
   0.98941944  0.66045540  0.65578281
   0.27077063  0.53560770  0.66558472
   0.40201543  0.28428994  0.66750424
   0.73919357  0.05333574  0.66685773
 
 position of ions in cartesian coordinates  (Angst):
   8.57630799  8.29684649 10.39845223
   8.54508836  3.69472704 15.13544053
   8.47448025  5.99816206 17.43110515
   8.51616202  0.79995025 12.43873821
  13.51818877  6.09848265 15.22289303
  13.49093588  1.15315590 10.44748880
  10.03343557  3.28428114 12.67411000
   9.99820736  8.39759851 17.28351074
   7.12524148  5.81576681 10.15764776
   7.07629255  1.26972886 14.96422748
   8.51222037  3.28035836 10.20449636
   8.58841048  8.33264668 14.80393117
  10.22263181  8.06723005 12.77991378
  10.29749395  3.89122409 17.26724683
   5.42664188  8.10481479 10.20639088
   5.38048766  3.54584879 15.11494037
   8.52842696  5.75423100 12.65640004
   8.72023576  1.39745016 17.24783278
   3.84829318  7.97316903 12.47259035
   3.86592039  3.37238157 17.47485299
   3.87092770  5.69921060 14.85225502
   3.90063135  0.73891098 10.00000000
  10.12242471  5.99541845 15.00653720
  10.19112400  1.10469510 10.13736353
   6.82945470  7.99424061 12.66669595
   6.94809627  3.56471138 17.44378674
  11.58728945  6.23005772 17.38652273
  11.66772263  1.05372358 12.57547056
  11.73919286  3.33868345 10.41198829
  11.75320213  8.21706120 15.24281174
   7.18521672  3.24643930 12.75389771
   7.34192765  8.45029754 17.07382179
   6.88583442  5.95345778 14.95053163
   6.87794726  0.97559764 10.08695433
   5.51083508  5.55011685 12.48418803
   5.59201607  1.01686205 17.37352658
   3.51249472  3.50019267 12.83518635
   3.33565225  8.70789691 17.28634011
   3.46798404  5.87236796 10.40868071
   3.49043582  1.31699110 15.19429684
  11.91771166  8.21633417 10.24533883
  11.95688404  3.67967432 15.06372823
   5.24135036  3.36542512 10.32678719
   5.20651850  8.32905449 15.08945018
   5.29450181  6.21820305 17.47228185
   5.28930157  0.99064225 12.60849381
   1.60537885  5.84490969 12.85121538
   1.39844038  1.57801168 17.63628479
  13.72037774  5.67134198 10.18293350
  13.68766187  1.09868300 15.03428167
   1.63456451  8.33987442 10.36453009
   1.65707672  3.77183729 15.38971592
  13.76831459  3.16119411 12.53307716
  13.71935593  8.33929350 17.29537605
   1.99440444  3.17313630 10.17666150
   1.86697048  8.10711647 14.97766120
  13.48050634  8.37929939 12.86885734
  13.38216289  4.17572252 17.77990074
   2.02634402  6.03242883 17.50067233
   2.02728715  0.87737042 12.46815015
  10.07171117  5.79401911 10.14662739
  10.18629877  1.21799861 14.88017171
  11.97050705  5.66180669 12.67659812
  11.90117867  1.41069227 17.73218236
   5.36284259  8.47215125 17.49742899
  13.54723840  2.31293076 18.72044752
   3.52981451  1.18866591 17.58673795
  13.62564221  6.31691360 18.14063813
   3.72887730  5.12281008 18.41178419
   5.53629559  2.71908592 18.46488306
  10.17969407  0.51012872 18.44699893
 


--------------------------------------------------------------------------------------------------------


 k-point  1 :   0.0000 0.0000 0.0000  plane waves:  121663
 k-point  2 :   0.3333 0.0000 0.0000  plane waves:  121577
 k-point  3 :   0.0000 0.3333 0.0000  plane waves:  121622
 k-point  4 :   0.3333 0.3333 0.0000  plane waves:  121647
 k-point  5 :  -0.3333 0.3333 0.0000  plane waves:  121647

 maximum and minimum number of plane-waves per node :      2568     2510

 maximum number of plane-waves:    121663
 maximum index in each direction: 
   IXMAX=   27   IYMAX=   19   IZMAX=   55
   IXMIN=  -27   IYMIN=  -19   IZMIN=  -55

 WARNING: aliasing errors must be expected set NGX to 110 to avoid them
 WARNING: aliasing errors must be expected set NGY to  78 to avoid them
 WARNING: aliasing errors must be expected set NGZ to 222 to avoid them
 aliasing errors are usually negligible using standard VASP settings
 and one can safely disregard these warnings

 parallel 3D FFT for wavefunctions:
    minimum data exchange during FFTs selected (reduces bandwidth)
 parallel 3D FFT for charge:
    minimum data exchange during FFTs selected (reduces bandwidth)


 total amount of memory used by VASP on root node    78933. kBytes
========================================================================

   base      :      30000. kBytes
   nonl-proj :      13836. kBytes
   fftplans  :       3278. kBytes
   grid      :       7939. kBytes
   one-center:         31. kBytes
   wavefun   :      23849. kBytes
 
     INWAV:  cpu time    0.0000: real time    0.0000
 Broyden mixing: mesh for mixing (old mesh)
   NGX = 55   NGY = 39   NGZ =111
  (NGX  =168   NGY  =120   NGZ  =336)
  gives a total of 238095 points

 initial charge density was supplied:
 charge density of overlapping atoms calculated
 number of electron     386.0000000 magnetization 
 keeping initial charge density in first step


--------------------------------------------------------------------------------------------------------


 Maximum index for augmentation-charges         1033 (set IRDMAX)


--------------------------------------------------------------------------------------------------------


 First call to EWALD:  gamma=   0.115
 Maximum number of real-space cells 3x 4x 2
 Maximum number of reciprocal cells 3x 2x 5

 FEWALD executed in parallel
    FEWALD:  cpu time    0.0023: real time    0.0023


----------------------------------------- Iteration    1(   1)  ---------------------------------------


    POTLOK:  cpu time    0.0579: real time    0.0581
    SETDIJ:  cpu time    0.0131: real time    0.0133
     EDDAV:  cpu time    9.5701: real time    9.5935
       DOS:  cpu time    0.0014: real time    0.0014
    --------------------------------------------
      LOOP:  cpu time    9.6461: real time    9.6722

 eigenvalue-minimisations  :  2440
 total energy-change (2. order) : 0.4551935E+04  (-0.1424059E+05)
 number of electron     386.0000000 magnetization 
 augmentation part      386.0000000 magnetization 

 Free energy of the ion-electron system (eV)
  ---------------------------------------------------
  alpha Z        PSCENC =       586.70222658
  Ewald energy   TEWEN  =     81215.90655518
  -Hartree energ DENC   =   -102006.14825890
  -exchange      EXHF   =         0.00000000
  -V(xc)+E(xc)   XCENC  =     -2893.99679583
  PAW double counting   =     21865.12746140   -17786.48437681
  entropy T*S    EENTRO =        -0.00964603
  eigenvalues    EBANDS =       418.30108419
  atomic energy  EATOM  =     23152.53642395
  Solvation  Ediel_sol  =         0.00000000
  ---------------------------------------------------
  free energy    TOTEN  =      4551.93467373 eV

  energy without entropy =     4551.94431976  energy(sigma->0) =     4551.93708524


--------------------------------------------------------------------------------------------------------




----------------------------------------- Iteration    1(   2)  ---------------------------------------


     EDDAV:  cpu time    9.6578: real time    9.6803
       DOS:  cpu time    0.0014: real time    0.0014
    --------------------------------------------
      LOOP:  cpu time    9.6607: real time    9.6842

 eigenvalue-minimisations  :  2488
 total energy-change (2. order) :-0.4075164E+04  (-0.3960255E+04)
 number of electron     386.0000000 magnetization 
 augmentation part      386.0000000 magnetization 

 Free energy of the ion-electron system (eV)
  ---------------------------------------------------
  alpha Z        PSCENC =       586.70222658
  Ewald energy   TEWEN  =     81215.90655518
  -Hartree energ DENC   =   -102006.14825890
  -exchange      EXHF   =         0.00000000
  -V(xc)+E(xc)   XCENC  =     -2893.99679583
  PAW double counting   =     21865.12746140   -17786.48437681
  entropy T*S    EENTRO =         0.00164772
  eigenvalues    EBANDS =     -3656.87416567
  atomic energy  EATOM  =     23152.53642395
  Solvation  Ediel_sol  =         0.00000000
  ---------------------------------------------------
  free energy    TOTEN  =       476.77071762 eV

  energy without entropy =      476.76906990  energy(sigma->0) =      476.77030569


--------------------------------------------------------------------------------------------------------




----------------------------------------- Iteration    1(   3)  ---------------------------------------


     EDDAV:  cpu time   15.0735: real time   15.0908
       DOS:  cpu time    0.0015: real time    0.0015
    --------------------------------------------
      LOOP:  cpu time   15.0761: real time   15.0950

 eigenvalue-minimisations  :  4304
 total energy-change (2. order) :-0.9833972E+03  (-0.9551855E+03)
 number of electron     386.0000000 magnetization 
 augmentation part      386.0000000 magnetization 

 Free energy of the ion-electron system (eV)
  ---------------------------------------------------
  alpha Z        PSCENC =       586.70222658
  Ewald energy   TEWEN  =     81215.90655518
  -Hartree energ DENC   =   -102006.14825890
  -exchange      EXHF   =         0.00000000
  -V(xc)+E(xc)   XCENC  =     -2893.99679583
  PAW double counting   =     21865.12746140   -17786.48437681
  entropy T*S    EENTRO =        -0.01044439
  eigenvalues    EBANDS =     -4640.25927507
  atomic energy  EATOM  =     23152.53642395
  Solvation  Ediel_sol  =         0.00000000
  ---------------------------------------------------
  free energy    TOTEN  =      -506.62648389 eV

  energy without entropy =     -506.61603950  energy(sigma->0) =     -506.62387279


--------------------------------------------------------------------------------------------------------




----------------------------------------- Iteration    1(   4)  ---------------------------------------


     EDDAV:  cpu time   13.0924: real time   13.1055
       DOS:  cpu time    0.0013: real time    0.0013
    --------------------------------------------
      LOOP:  cpu time   13.0949: real time   13.1096

 eigenvalue-minimisations  :  3648
 total energy-change (2. order) :-0.1378578E+03  (-0.1329140E+03)
 number of electron     386.0000000 magnetization 
 augmentation part      386.0000000 magnetization 

 Free energy of the ion-electron system (eV)
  ---------------------------------------------------
  alpha Z        PSCENC =       586.70222658
  Ewald energy   TEWEN  =     81215.90655518
  -Hartree energ DENC   =   -102006.14825890
  -exchange      EXHF   =         0.00000000
  -V(xc)+E(xc)   XCENC  =     -2893.99679583
  PAW double counting   =     21865.12746140   -17786.48437681
  entropy T*S    EENTRO =        -0.00590491
  eigenvalues    EBANDS =     -4778.12166302
  atomic energy  EATOM  =     23152.53642395
  Solvation  Ediel_sol  =         0.00000000
  ---------------------------------------------------
  free energy    TOTEN  =      -644.48433236 eV

  energy without entropy =     -644.47842745  energy(sigma->0) =     -644.48285613


--------------------------------------------------------------------------------------------------------




----------------------------------------- Iteration    1(   5)  ---------------------------------------


     EDDAV:  cpu time   15.2677: real time   15.2853
       DOS:  cpu time    0.0014: real time    0.0014
    CHARGE:  cpu time    0.2188: real time    0.2193
    MIXING:  cpu time    0.0053: real time    0.0054
    --------------------------------------------
      LOOP:  cpu time   15.4944: real time   15.5142

 eigenvalue-minimisations  :  4384
 total energy-change (2. order) :-0.1610754E+02  (-0.1571343E+02)
 number of electron     386.0000068 magnetization 
 augmentation part       46.0172593 magnetization 

 Broyden mixing:
  rms(total) = 0.67126E+01    rms(broyden)= 0.67125E+01
  rms(prec ) = 0.72484E+01
  weight for this iteration     100.00

 Free energy of the ion-electron system (eV)
  ---------------------------------------------------
  alpha Z        PSCENC =       586.70222658
  Ewald energy   TEWEN  =     81215.90655518
  -Hartree energ DENC   =   -102006.14825890
  -exchange      EXHF   =         0.00000000
  -V(xc)+E(xc)   XCENC  =     -2893.99679583
  PAW double counting   =     21865.12746140   -17786.48437681
  entropy T*S    EENTRO =        -0.00794365
  eigenvalues    EBANDS =     -4794.22716415
  atomic energy  EATOM  =     23152.53642395
  Solvation  Ediel_sol  =         0.00000000
  ---------------------------------------------------
  free energy    TOTEN  =      -660.59187223 eV

  energy without entropy =     -660.58392858  energy(sigma->0) =     -660.58988632


--------------------------------------------------------------------------------------------------------




----------------------------------------- Iteration    1(   6)  ---------------------------------------


    POTLOK:  cpu time    0.0498: real time    0.0498
    SETDIJ:  cpu time    0.0066: real time    0.0066
    EDDIAG:  cpu time    0.8795: real time    0.8857
  RMM-DIIS:  cpu time    9.6161: real time    9.6167
    ORTHCH:  cpu time    0.2479: real time    0.2506
       DOS:  cpu time    0.0014: real time    0.0014
    CHARGE:  cpu time    0.2140: real time    0.2140
    MIXING:  cpu time    0.0031: real time    0.0031
    --------------------------------------------
      LOOP:  cpu time   11.0201: real time   11.0321

 eigenvalue-minimisations  :  3699
 total energy-change (2. order) :-0.4773854E+02  (-0.1491451E+03)
 number of electron     386.0000048 magnetization 
 augmentation part       61.2568305 magnetization 

 Broyden mixing:
  rms(total) = 0.43883E+01    rms(broyden)= 0.43882E+01
  rms(prec ) = 0.57689E+01
  weight for this iteration     100.00

 eigenvalues of (default mixing * dielectric matrix)
  average eigenvalue GAMMA=   0.7465
  0.7465

 Free energy of the ion-electron system (eV)
  ---------------------------------------------------
  alpha Z        PSCENC =       586.70222658
  Ewald energy   TEWEN  =     81215.90655518
  -Hartree energ DENC   =   -102758.44837467
  -exchange      EXHF   =         0.00000000
  -V(xc)+E(xc)   XCENC  =     -2873.10355571
  PAW double counting   =     25845.54918522   -21769.45312577
  entropy T*S    EENTRO =        -0.03636219
  eigenvalues    EBANDS =     -4107.98338149
  atomic energy  EATOM  =     23152.53642395
  Solvation  Ediel_sol  =         0.00000000
  ---------------------------------------------------
  free energy    TOTEN  =      -708.33040890 eV

  energy without entropy =     -708.29404672  energy(sigma->0) =     -708.32131836


--------------------------------------------------------------------------------------------------------




----------------------------------------- Iteration    1(   7)  ---------------------------------------


    POTLOK:  cpu time    0.0484: real time    0.0484
    SETDIJ:  cpu time    0.0064: real time    0.0064
    EDDIAG:  cpu time    0.8804: real time    0.8868
  RMM-DIIS:  cpu time    6.7413: real time    6.7414
    ORTHCH:  cpu time    0.2486: real time    0.2500
       DOS:  cpu time    0.0014: real time    0.0014
    CHARGE:  cpu time    0.2141: real time    0.2141
    MIXING:  cpu time    0.0018: real time    0.0018
    --------------------------------------------
      LOOP:  cpu time    8.1440: real time    8.1563

 eigenvalue-minimisations  :  2582
 total energy-change (2. order) : 0.7543277E+02  (-0.3284516E+02)
 number of electron     386.0000052 magnetization 
 augmentation part       54.9201354 magnetization 

 Broyden mixing:
  rms(total) = 0.35907E+01    rms(broyden)= 0.35907E+01
  rms(prec ) = 0.57896E+01
  weight for this iteration     100.00

 eigenvalues of (default mixing * dielectric matrix)
  average eigenvalue GAMMA=   0.6957
  1.0426  0.3488

 Free energy of the ion-electron system (eV)
  ---------------------------------------------------
  alpha Z        PSCENC =       586.70222658
  Ewald energy   TEWEN  =     81215.90655518
  -Hartree energ DENC   =   -102306.32008896
  -exchange      EXHF   =         0.00000000
  -V(xc)+E(xc)   XCENC  =     -2875.86060816
  PAW double counting   =     26346.22993193   -22282.70435125
  entropy T*S    EENTRO =         0.02025246
  eigenvalues    EBANDS =     -4469.40798414
  atomic energy  EATOM  =     23152.53642395
  Solvation  Ediel_sol  =         0.00000000
  ---------------------------------------------------
  free energy    TOTEN  =      -632.89764240 eV

  energy without entropy =     -632.91789487  energy(sigma->0) =     -632.90270552


--------------------------------------------------------------------------------------------------------




----------------------------------------- Iteration    1(   8)  ---------------------------------------


    POTLOK:  cpu time    0.0488: real time    0.0488
    SETDIJ:  cpu time    0.0064: real time    0.0064
    EDDIAG:  cpu time    0.8785: real time    0.8815
  RMM-DIIS:  cpu time    9.4824: real time    9.4824
    ORTHCH:  cpu time    0.2390: real time    0.2512
       DOS:  cpu time    0.0014: real time    0.0014
    CHARGE:  cpu time    0.2148: real time    0.2148
    MIXING:  cpu time    0.0019: real time    0.0019
    --------------------------------------------
      LOOP:  cpu time   10.8749: real time   10.8926

 eigenvalue-minimisations  :  3664
 total energy-change (2. order) :-0.9293937E+01  (-0.1813828E+02)
 number of electron     386.0000051 magnetization 
 augmentation part       51.4171980 magnetization 

 Broyden mixing:
  rms(total) = 0.33007E+01    rms(broyden)= 0.33007E+01
  rms(prec ) = 0.59624E+01
  weight for this iteration     100.00

 eigenvalues of (default mixing * dielectric matrix)
  average eigenvalue GAMMA=   0.6399
  1.2814  0.4196  0.2187

 Free energy of the ion-electron system (eV)
  ---------------------------------------------------
  alpha Z        PSCENC =       586.70222658
  Ewald energy   TEWEN  =     81215.90655518
  -Hartree energ DENC   =   -102454.37442427
  -exchange      EXHF   =         0.00000000
  -V(xc)+E(xc)   XCENC  =     -2875.66520294
  PAW double counting   =     27130.64978264   -23069.51212870
  entropy T*S    EENTRO =        -0.01180368
  eigenvalues    EBANDS =     -4328.42300779
  atomic energy  EATOM  =     23152.53642395
  Solvation  Ediel_sol  =         0.00000000
  ---------------------------------------------------
  free energy    TOTEN  =      -642.19157904 eV

  energy without entropy =     -642.17977536  energy(sigma->0) =     -642.18862812


--------------------------------------------------------------------------------------------------------




----------------------------------------- Iteration    1(   9)  ---------------------------------------


    POTLOK:  cpu time    0.0489: real time    0.0489
    SETDIJ:  cpu time    0.0063: real time    0.0063
    EDDIAG:  cpu time    0.8907: real time    0.8951
  RMM-DIIS:  cpu time    9.2354: real time    9.2355
    ORTHCH:  cpu time    0.2433: real time    0.2512
       DOS:  cpu time    0.0015: real time    0.0015
    CHARGE:  cpu time    0.2134: real time    0.2134
    MIXING:  cpu time    0.0020: real time    0.0020
    --------------------------------------------
      LOOP:  cpu time   10.6432: real time   10.6580

 eigenvalue-minimisations  :  3536
 total energy-change (2. order) : 0.5376954E+02  (-0.6614295E+01)
 number of electron     386.0000052 magnetization 
 augmentation part       50.1511425 magnetization 

 Broyden mixing:
  rms(total) = 0.19120E+01    rms(broyden)= 0.19120E+01
  rms(prec ) = 0.22251E+01
  weight for this iteration     100.00

 eigenvalues of (default mixing * dielectric matrix)
  average eigenvalue GAMMA=   0.6452
  1.5311  0.4359  0.4359  0.1778

 Free energy of the ion-electron system (eV)
  ---------------------------------------------------
  alpha Z        PSCENC =       586.70222658
  Ewald energy   TEWEN  =     81215.90655518
  -Hartree energ DENC   =   -102477.81363619
  -exchange      EXHF   =         0.00000000
  -V(xc)+E(xc)   XCENC  =     -2873.59098296
  PAW double counting   =     27829.60389880   -23765.00472875
  entropy T*S    EENTRO =         0.00193190
  eigenvalues    EBANDS =     -4256.76372778
  atomic energy  EATOM  =     23152.53642395
  Solvation  Ediel_sol  =         0.00000000
  ---------------------------------------------------
  free energy    TOTEN  =      -588.42203926 eV

  energy without entropy =     -588.42397117  energy(sigma->0) =     -588.42252224


--------------------------------------------------------------------------------------------------------




----------------------------------------- Iteration    1(  10)  ---------------------------------------


    POTLOK:  cpu time    0.0489: real time    0.0489
    SETDIJ:  cpu time    0.0065: real time    0.0065
    EDDIAG:  cpu time    0.8791: real time    0.8930
  RMM-DIIS:  cpu time    8.4833: real time    8.4834
    ORTHCH:  cpu time    0.2369: real time    0.2500
       DOS:  cpu time    0.0015: real time    0.0015
    CHARGE:  cpu time    0.2133: real time    0.2133
    MIXING:  cpu time    0.0022: real time    0.0022
    --------------------------------------------
      LOOP:  cpu time    9.8732: real time    9.9031

 eigenvalue-minimisations  :  3234
 total energy-change (2. order) : 0.8065138E+01  (-0.3150534E+01)
 number of electron     386.0000054 magnetization 
 augmentation part       52.7759827 magnetization 

 Broyden mixing:
  rms(total) = 0.10407E+01    rms(broyden)= 0.10407E+01
  rms(prec ) = 0.12526E+01
  weight for this iteration     100.00

 eigenvalues of (default mixing * dielectric matrix)
  average eigenvalue GAMMA=   0.6829
  1.7030  0.6021  0.6021  0.3312  0.1759

 Free energy of the ion-electron system (eV)
  ---------------------------------------------------
  alpha Z        PSCENC =       586.70222658
  Ewald energy   TEWEN  =     81215.90655518
  -Hartree energ DENC   =   -102517.37966079
  -exchange      EXHF   =         0.00000000
  -V(xc)+E(xc)   XCENC  =     -2869.89100246
  PAW double counting   =     28463.81778937   -24393.30955297
  entropy T*S    EENTRO =        -0.00797766
  eigenvalues    EBANDS =     -4218.73170239
  atomic energy  EATOM  =     23152.53642395
  Solvation  Ediel_sol  =         0.00000000
  ---------------------------------------------------
  free energy    TOTEN  =      -580.35690119 eV

  energy without entropy =     -580.34892353  energy(sigma->0) =     -580.35490678


--------------------------------------------------------------------------------------------------------




----------------------------------------- Iteration    1(  11)  ---------------------------------------


    POTLOK:  cpu time    0.0491: real time    0.0491
    SETDIJ:  cpu time    0.0064: real time    0.0064
    EDDIAG:  cpu time    0.8971: real time    0.9013
  RMM-DIIS:  cpu time    9.4596: real time    9.4597
    ORTHCH:  cpu time    0.2496: real time    0.2520
       DOS:  cpu time    0.0015: real time    0.0015
    CHARGE:  cpu time    0.2140: real time    0.2140
    MIXING:  cpu time    0.0022: real time    0.0022
    --------------------------------------------
      LOOP:  cpu time   10.8811: real time   10.8902

 eigenvalue-minimisations  :  3646
 total energy-change (2. order) :-0.1732165E+01  (-0.2775600E+01)
 number of electron     386.0000052 magnetization 
 augmentation part       54.3279302 magnetization 

 Broyden mixing:
  rms(total) = 0.11562E+01    rms(broyden)= 0.11562E+01
  rms(prec ) = 0.15942E+01
  weight for this iteration     100.00

 eigenvalues of (default mixing * dielectric matrix)
  average eigenvalue GAMMA=   0.6523
  1.7775  0.6786  0.6786  0.3619  0.1760  0.2410

 Free energy of the ion-electron system (eV)
  ---------------------------------------------------
  alpha Z        PSCENC =       586.70222658
  Ewald energy   TEWEN  =     81215.90655518
  -Hartree energ DENC   =   -102562.68005899
  -exchange      EXHF   =         0.00000000
  -V(xc)+E(xc)   XCENC  =     -2867.40450798
  PAW double counting   =     28984.13516753   -24909.63377267
  entropy T*S    EENTRO =        -0.01739983
  eigenvalues    EBANDS =     -4181.63370003
  atomic energy  EATOM  =     23152.53642395
  Solvation  Ediel_sol  =         0.00000000
  ---------------------------------------------------
  free energy    TOTEN  =      -582.08906626 eV

  energy without entropy =     -582.07166643  energy(sigma->0) =     -582.08471630


--------------------------------------------------------------------------------------------------------




----------------------------------------- Iteration    1(  12)  ---------------------------------------


    POTLOK:  cpu time    0.0491: real time    0.0491
    SETDIJ:  cpu time    0.0065: real time    0.0065
    EDDIAG:  cpu time    0.8891: real time    0.8951
  RMM-DIIS:  cpu time    9.4379: real time    9.4380
    ORTHCH:  cpu time    0.2401: real time    0.2515
       DOS:  cpu time    0.0015: real time    0.0015
    CHARGE:  cpu time    0.2135: real time    0.2136
    MIXING:  cpu time    0.0023: real time    0.0023
    --------------------------------------------
      LOOP:  cpu time   10.8419: real time   10.8619

 eigenvalue-minimisations  :  3648
 total energy-change (2. order) : 0.3172810E+01  (-0.1004317E+01)
 number of electron     386.0000053 magnetization 
 augmentation part       53.9934123 magnetization 

 Broyden mixing:
  rms(total) = 0.53354E+00    rms(broyden)= 0.53354E+00
  rms(prec ) = 0.68815E+00
  weight for this iteration     100.00

 eigenvalues of (default mixing * dielectric matrix)
  average eigenvalue GAMMA=   0.6512
  1.8607  0.9306  0.5030  0.5030  0.3667  0.1772  0.2175

 Free energy of the ion-electron system (eV)
  ---------------------------------------------------
  alpha Z        PSCENC =       586.70222658
  Ewald energy   TEWEN  =     81215.90655518
  -Hartree energ DENC   =   -102599.38252301
  -exchange      EXHF   =         0.00000000
  -V(xc)+E(xc)   XCENC  =     -2866.33654082
  PAW double counting   =     29269.41037221   -25192.80525494
  entropy T*S    EENTRO =        -0.00877147
  eigenvalues    EBANDS =     -4144.93874379
  atomic energy  EATOM  =     23152.53642395
  Solvation  Ediel_sol  =         0.00000000
  ---------------------------------------------------
  free energy    TOTEN  =      -578.91625610 eV

  energy without entropy =     -578.90748463  energy(sigma->0) =     -578.91406323


--------------------------------------------------------------------------------------------------------




----------------------------------------- Iteration    1(  13)  ---------------------------------------


    POTLOK:  cpu time    0.0491: real time    0.0491
    SETDIJ:  cpu time    0.0064: real time    0.0064
    EDDIAG:  cpu time    0.8927: real time    0.8961
  RMM-DIIS:  cpu time    9.4778: real time    9.4779
[...]
    OFIELD:  cpu time    0.0000: real time    0.0000

  FORCE on cell =-STRESS in cart. coord.  units (eV):
  Direction    XX          YY          ZZ          XY          YZ          ZX
  --------------------------------------------------------------------------------------
  Alpha Z   586.70223   586.70223   586.70223
  Ewald   88773.96062 93564.10526************  -809.02807   172.24050   326.55615
  Hartree 93859.84156 98385.88752-89536.46788  -656.99452   119.26120   312.10112
  E(xc)   -1657.12417 -1657.80900 -1646.05182    -0.32381    -0.82410     0.94736
  Local  ************************186418.81876  1465.11054  -287.31585  -639.28686
  n-local  -163.62318  -163.49266  -203.56511     8.34706     2.46281     2.83588
  augment   482.24779   482.78090   478.91499    -1.64562    -0.34266     0.05995
  Kinetic  4972.29652  4957.90449  5008.17681   -10.22793    -0.21753    -4.51551
  Fock        0.00000     0.00000     0.00000     0.00000     0.00000     0.00000
  -------------------------------------------------------------------------------------
  Total     -32.89373   -24.93742   -16.12791    -4.76235     5.26436    -1.30192
  in kB     -14.46416   -10.96558    -7.09183    -2.09412     2.31487    -0.57248
  external pressure =      -10.84 kB  Pullay stress =        0.00 kB


 VOLUME and BASIS-vectors are now :
 -----------------------------------------------------------------------------
  energy-cutoff  :      600.00
  volume of cell :     3643.60
      direct lattice vectors                 reciprocal lattice vectors
    13.771350861  0.000000000  0.000000000     0.072614518  0.000000000  0.000000000
     0.000000000  9.564481735  0.000000000     0.000000000  0.104553496  0.000000000
     0.000000000  0.000000000 27.662570434     0.000000000  0.000000000  0.036149931

  length of vectors
    13.771350861  9.564481735 27.662570434     0.072614518  0.104553496  0.036149931


 FORCES acting on ions
    electron-ion (+dipol)            ewald-force                    non-local-force                 convergence-correction
 -----------------------------------------------------------------------------------------------
   -.468E+02 -.338E+02 0.406E+03   0.467E+02 0.336E+02 -.405E+03   0.915E-01 0.756E-01 -.783E+00   -.834E-02 -.430E-02 0.295E-02
   -.187E+02 -.372E+02 -.945E+02   0.186E+02 0.370E+02 0.946E+02   0.963E-01 0.199E+00 -.129E+00   -.489E-02 0.133E-02 0.619E-02
   0.343E+02 0.199E+02 -.366E+03   -.340E+02 -.196E+02 0.365E+03   -.256E+00 -.349E+00 0.126E+01   -.356E-02 0.396E-03 0.611E-03
   0.215E+01 0.317E+01 0.228E+03   -.222E+01 -.306E+01 -.228E+03   0.881E-01 -.204E+00 -.709E+00   -.823E-02 -.105E-02 0.937E-02
   -.576E+02 0.597E+01 -.488E+02   0.573E+02 -.558E+01 0.485E+02   0.366E+00 -.384E+00 0.294E+00   0.247E-02 0.110E-03 0.510E-02
   -.458E+02 0.457E+01 0.349E+03   0.452E+02 -.396E+01 -.347E+03   0.641E+00 -.102E+01 -.229E+01   0.108E-01 -.606E-03 0.253E-02
   -.370E+03 -.766E+01 0.596E+03   0.370E+03 0.835E+01 -.598E+03   0.180E+00 -.318E+00 0.964E+00   -.164E-01 0.134E-01 0.438E-01
   -.218E+03 0.200E+03 -.145E+04   0.217E+03 -.199E+03 0.144E+04   0.125E+01 -.114E+01 0.323E+01   -.771E-02 0.198E-02 0.294E-02
   0.100E+03 -.691E+01 0.173E+04   -.998E+02 0.581E+01 -.173E+04   -.510E+00 0.653E+00 -.432E+01   -.279E-01 0.295E-02 0.128E-01
   0.146E+03 -.477E+01 -.211E+03   -.146E+03 0.476E+01 0.213E+03   0.194E+00 0.825E-02 -.143E+01   -.238E-01 0.142E-02 0.251E-01
   -.533E+02 0.137E+03 0.180E+04   0.542E+02 -.137E+03 -.180E+04   -.499E+00 -.416E+00 -.276E+01   -.409E-01 0.229E-01 0.119E-01
   0.697E+02 0.113E+03 -.220E+03   -.688E+02 -.114E+03 0.220E+03   -.816E+00 0.568E+00 -.268E+00   -.185E-01 -.708E-02 0.278E-01
   -.427E+03 0.458E+01 0.883E+03   0.428E+03 -.562E+01 -.882E+03   -.793E+00 0.127E+01 -.135E+01   -.123E-01 -.125E-01 0.413E-01
   -.118E+03 -.466E+02 -.136E+04   0.119E+03 0.463E+02 0.136E+04   -.788E+00 0.261E+00 0.276E+01   -.616E-02 0.128E-01 0.147E-01
   0.295E+03 -.115E+03 0.164E+04   -.295E+03 0.115E+03 -.164E+04   0.275E+00 -.386E+00 -.417E+01   -.189E-01 -.216E-02 0.144E-01
   0.311E+03 -.150E+03 -.239E+03   -.311E+03 0.150E+03 0.240E+03   0.164E+00 0.419E-01 -.675E+00   -.249E-02 -.300E-02 0.215E-01
   -.123E+02 0.576E+01 0.234E+03   0.118E+02 -.566E+01 -.234E+03   0.475E+00 -.382E+00 0.393E-01   -.940E-02 0.121E-02 0.116E-01
   0.220E+02 -.698E+02 -.563E+03   -.228E+02 0.697E+02 0.561E+03   0.751E+00 0.829E-01 0.232E+01   -.639E-02 -.482E-03 0.342E-02
   0.172E+03 -.471E+01 0.227E+03   -.171E+03 0.455E+01 -.228E+03   -.147E+01 0.597E+00 0.412E+00   0.121E-02 0.302E-04 0.685E-02
   0.158E+03 -.323E+02 -.487E+03   -.157E+03 0.337E+02 0.485E+03   -.114E+01 -.140E+01 0.269E+01   0.233E-02 0.238E-03 -.113E-02
   0.126E+03 -.560E+02 -.443E+02   -.126E+03 0.560E+02 0.442E+02   -.249E+00 -.151E-01 0.176E+00   0.479E-03 0.107E-02 0.357E-02
   0.116E+03 -.558E+02 0.502E+03   -.115E+03 0.558E+02 -.499E+03   -.823E+00 -.230E+00 -.265E+01   0.177E-03 -.308E-03 0.481E-02
   -.911E+02 0.593E+02 -.975E+02   0.912E+02 -.591E+02 0.974E+02   -.711E-01 -.255E+00 0.599E-01   -.220E-02 0.118E-02 0.880E-02
   -.998E+02 0.594E+02 0.555E+03   0.991E+02 -.588E+02 -.552E+03   0.445E+00 -.515E+00 -.276E+01   -.503E-02 -.172E-02 0.125E-02
   0.793E+02 -.114E+02 0.208E+03   -.803E+02 0.108E+02 -.208E+03   0.890E+00 0.782E+00 -.427E+00   -.811E-02 -.158E-02 0.743E-02
   -.537E+02 -.798E+02 -.471E+03   0.537E+02 0.792E+02 0.469E+03   0.549E-01 0.649E+00 0.212E+01   -.315E-02 -.141E-03 0.641E-03
   -.666E+02 0.423E+01 -.413E+03   0.660E+02 -.430E+01 0.410E+03   0.579E+00 0.702E-01 0.289E+01   0.387E-03 -.213E-03 0.203E-02
   -.162E+03 0.650E+01 0.235E+03   0.162E+03 -.626E+01 -.236E+03   0.153E+00 -.395E+00 0.388E+00   0.546E-02 -.777E-03 0.146E-01
   -.149E+03 -.567E+01 0.513E+03   0.148E+03 0.559E+01 -.510E+03   0.702E+00 -.358E-01 -.252E+01   0.672E-02 0.586E-02 0.357E-02
   -.188E+03 -.591E+01 -.964E+02   0.187E+03 0.585E+01 0.963E+02   0.104E+01 0.651E-01 0.477E-01   0.564E-03 -.214E-02 0.804E-02
   0.832E+02 -.266E+00 0.214E+03   -.835E+02 0.678E+00 -.215E+03   0.402E-01 -.824E-01 -.109E+00   -.901E-02 0.140E-02 0.824E-02
   0.529E+02 0.542E+02 -.467E+03   -.525E+02 -.540E+02 0.466E+03   -.428E+00 -.182E+00 0.144E+01   -.474E-02 -.130E-02 0.160E-02
   0.530E+02 0.102E+01 -.110E+03   -.536E+02 -.791E+00 0.110E+03   0.619E+00 -.226E+00 0.477E+00   -.599E-02 -.250E-03 0.760E-02
   0.351E+02 -.160E+01 0.534E+03   -.358E+02 0.152E+01 -.531E+03   0.612E+00 0.541E-01 -.244E+01   -.132E-01 -.123E-02 0.378E-02
   0.127E+03 0.116E+02 0.203E+03   -.127E+03 -.119E+02 -.203E+03   -.795E+00 0.581E+00 -.416E+00   -.492E-02 0.760E-03 0.647E-02
   0.136E+02 0.407E+02 -.444E+03   -.120E+02 -.393E+02 0.442E+03   -.160E+01 -.137E+01 0.246E+01   -.568E-03 -.695E-03 -.503E-03
   0.123E+03 0.648E+01 0.230E+03   -.123E+03 -.626E+01 -.230E+03   0.423E-01 -.271E+00 -.639E+00   0.178E-02 0.107E-03 0.532E-02
   0.128E+03 0.647E+02 -.375E+03   -.129E+03 -.658E+02 0.373E+03   0.136E+01 0.105E+01 0.186E+01   0.183E-02 -.117E-02 -.602E-03
   0.125E+03 0.397E+02 0.461E+03   -.125E+03 -.395E+02 -.458E+03   0.137E+00 -.446E+00 -.272E+01   0.269E-02 0.477E-03 0.528E-02
   0.140E+03 0.371E+02 -.310E+02   -.140E+03 -.365E+02 0.308E+02   -.356E+00 -.598E+00 0.115E+00   0.202E-02 -.109E-02 0.400E-02
   -.984E+02 -.107E+01 0.521E+03   0.987E+02 0.105E+01 -.517E+03   -.480E+00 0.535E-01 -.310E+01   0.625E-02 -.446E-02 0.249E-02
   -.144E+03 0.479E+01 -.617E+02   0.143E+03 -.477E+01 0.622E+02   0.398E+00 -.168E-01 -.521E+00   0.243E-02 0.216E-02 0.839E-02
   0.129E+03 0.283E+02 0.487E+03   -.129E+03 -.285E+02 -.485E+03   -.215E+00 0.324E+00 -.249E+01   -.557E-02 0.327E-03 0.484E-02
   0.132E+03 0.379E+02 -.616E+02   -.132E+03 -.376E+02 0.607E+02   -.464E+00 -.262E+00 0.858E+00   -.276E-02 -.106E-02 0.553E-02
   0.645E+01 -.103E+02 -.429E+03   -.733E+01 0.976E+01 0.426E+03   0.876E+00 0.580E+00 0.316E+01   -.134E-02 0.343E-03 -.237E-03
   0.124E+03 -.709E+01 0.248E+03   -.124E+03 0.680E+01 -.249E+03   0.413E+00 0.298E+00 -.134E+00   -.562E-02 -.328E-03 0.605E-02
   0.346E+02 0.347E+01 0.189E+03   -.343E+02 -.338E+01 -.190E+03   -.138E+00 -.179E+00 0.127E+00   0.775E-02 -.344E-04 0.680E-02
   0.269E+02 0.301E+02 -.376E+03   -.282E+02 -.293E+02 0.373E+03   0.128E+01 -.787E+00 0.233E+01   0.430E-02 -.804E-03 0.226E-03
   -.410E+02 -.151E-01 0.474E+03   0.412E+02 0.409E+00 -.470E+03   -.680E-01 -.264E+00 -.276E+01   0.945E-02 0.757E-03 0.332E-02
   -.603E+02 -.236E+01 -.582E+02   0.603E+02 0.189E+01 0.586E+02   0.439E-01 0.472E+00 -.335E+00   0.589E-02 -.528E-03 0.710E-02
   0.512E+02 -.287E+01 0.454E+03   -.512E+02 0.222E+01 -.451E+03   0.449E-01 0.217E+00 -.306E+01   0.883E-02 0.411E-03 0.433E-02
   0.542E+02 -.501E+01 -.835E+02   -.539E+02 0.475E+01 0.842E+02   -.362E+00 0.250E+00 -.773E+00   0.522E-02 0.454E-03 0.405E-02
   -.709E+02 -.319E+01 0.221E+03   0.709E+02 0.338E+01 -.221E+03   0.129E+00 0.198E+00 0.244E+00   0.103E-01 0.111E-02 0.879E-02
   -.619E+02 -.440E+02 -.356E+03   0.626E+02 0.433E+02 0.353E+03   -.658E+00 0.717E+00 0.239E+01   0.342E-02 -.125E-02 0.211E-02
   0.400E+02 0.894E+00 0.469E+03   -.393E+02 -.749E+00 -.465E+03   -.845E+00 -.307E+00 -.330E+01   0.797E-02 -.655E-03 0.437E-02
   0.354E+02 0.284E+00 -.511E+02   -.350E+02 -.191E+00 0.515E+02   -.449E+00 -.919E-01 -.434E+00   0.634E-02 -.137E-03 0.593E-02
   -.944E+02 -.973E-02 0.195E+03   0.941E+02 -.182E+00 -.195E+03   0.556E+00 0.284E+00 0.999E-01   0.834E-02 -.154E-02 0.908E-02
   -.548E+02 -.565E+01 -.395E+03   0.539E+02 0.463E+01 0.393E+03   0.913E+00 0.101E+01 0.215E+01   0.209E-02 0.880E-03 0.120E-02
   0.300E+02 -.336E+02 -.358E+03   -.290E+02 0.337E+02 0.356E+03   -.976E+00 -.918E-01 0.235E+01   0.413E-02 0.920E-03 0.499E-03
   0.510E+02 -.641E+01 0.227E+03   -.503E+02 0.633E+01 -.227E+03   -.739E+00 0.456E+00 -.135E+00   0.784E-02 -.870E-04 0.563E-02
   -.140E+03 -.425E+02 0.550E+03   0.140E+03 0.419E+02 -.547E+03   0.845E+00 0.677E-01 -.327E+01   -.536E-02 0.130E-02 0.239E-02
   -.142E+03 -.404E+02 -.717E+02   0.142E+03 0.403E+02 0.723E+02   0.503E+00 0.165E+00 -.566E+00   -.275E-02 -.823E-03 0.101E-01
   -.155E+03 0.473E+01 0.221E+03   0.154E+03 -.476E+01 -.222E+03   0.672E+00 0.360E+00 0.733E-01   0.313E-02 0.114E-02 0.109E-01
   -.105E+03 0.774E+01 -.401E+03   0.105E+03 -.727E+01 0.400E+03   0.791E-02 -.476E+00 0.162E+01   0.130E-02 -.403E-03 0.235E-02
   0.858E+02 0.800E+02 -.707E+03   -.856E+02 -.806E+02 0.714E+03   -.181E+00 0.620E+00 -.756E+01   -.304E-02 -.202E-02 -.496E-02
   -.555E+02 0.181E+02 -.807E+03   0.557E+02 -.194E+02 0.822E+03   -.197E+00 0.130E+01 -.148E+02   0.118E-02 0.156E-02 -.255E-02
   0.164E+03 0.507E+02 -.655E+03   -.164E+03 -.529E+02 0.662E+03   0.283E+00 0.213E+01 -.742E+01   0.371E-03 -.334E-03 -.420E-02
   -.698E+02 -.287E+02 -.730E+03   0.696E+02 0.310E+02 0.738E+03   0.259E+00 -.227E+01 -.863E+01   0.287E-02 0.627E-02 -.128E-02
   0.755E+02 -.750E+02 -.815E+03   -.764E+02 0.788E+02 0.831E+03   0.833E+00 -.390E+01 -.164E+02   0.487E-02 0.111E-01 0.690E-02
   -.634E+01 -.187E+02 -.933E+03   0.944E+01 0.175E+02 0.952E+03   -.310E+01 0.123E+01 -.190E+02   0.402E-02 0.478E-02 -.959E-02
   -.750E+02 -.928E+02 -.970E+03   0.747E+02 0.926E+02 0.988E+03   0.318E+00 0.213E+00 -.181E+02   -.528E-02 -.529E-03 0.885E-03
 -----------------------------------------------------------------------------------------------
   -.165E-01 0.127E+01 0.104E+03   0.327E-12 0.142E-12 0.171E-11   0.165E+00 -.131E+01 -.105E+03   -.147E+00 0.443E-01 0.461E+00
 
 
 POSITION                                       TOTAL-FORCE (eV/Angst)
 -----------------------------------------------------------------------------------
      8.57631      8.29685     10.39845        -0.069046     -0.149167      0.005018
      8.54561      3.69489     15.13485         0.001779      0.000975     -0.001451
      8.47557      5.99685     17.43155         0.002231     -0.002449      0.003123
      8.51616      0.79995     12.43874         0.006532     -0.093807     -0.198633
     13.51915      6.09927     15.22339         0.001643      0.000402      0.002037
     13.49094      1.15316     10.44749        -0.034666     -0.404822     -0.061723
     10.03344      3.28428     12.67411        -0.081878      0.389437     -0.615962
      9.99822      8.39678     17.28383        -0.000410      0.003432     -0.000036
      7.12524      5.81577     10.15765        -0.140104     -0.439025      0.936390
      7.07651      1.26970     14.96437        -0.000841      0.000130     -0.002581
      8.51222      3.28036     10.20450         0.306265      0.009917      0.760772
      8.58828      8.33263     14.80429         0.000766     -0.001174     -0.002030
     10.22263      8.06723     12.77991         0.257510      0.210381     -0.549201
     10.29758      3.89069     17.26694         0.001702     -0.001600      0.000398
      5.42664      8.10481     10.20639         0.277422      0.041681      0.916198
      5.38019      3.54636     15.11481         0.004255     -0.005430     -0.000121
      8.52843      5.75423     12.65640        -0.010554     -0.278896     -0.084078
      8.72068      1.39711     17.24740        -0.000025     -0.002614      0.002179
      3.84829      7.97317     12.47259        -0.494591      0.431767     -0.591886
      3.86711      3.37097     17.47318        -0.006161     -0.000375      0.002943
      3.87026      5.69916     14.85188        -0.002374      0.001353     -0.002083
      3.90063      0.73891     10.00000         0.509117     -0.183128      0.367763
     10.12250      5.99572     15.00679        -0.001349      0.001618      0.000002
     10.19112      1.10470     10.13736        -0.228836      0.032722      0.347954
      6.82945      7.99424     12.66670        -0.110197      0.245999     -0.455533
      6.94866      3.56440     17.44381        -0.002256     -0.003970      0.002739
     11.58690      6.22999     17.38679        -0.001345     -0.003600      0.002051
     11.66772      1.05372     12.57547        -0.187081     -0.151500     -0.652492
     11.73919      3.33868     10.41199        -0.270242     -0.101522      0.589938
     11.75278      8.21718     15.24227        -0.000785     -0.000068     -0.001000
      7.18522      3.24644     12.75390        -0.206028      0.331096     -0.441763
      7.34144      8.45028     17.07369         0.002508     -0.005693      0.000200
      6.88525      5.95265     14.95136        -0.001609     -0.000931      0.003202
      6.87795      0.97560     10.08695        -0.056256     -0.025724      0.167722
      5.51084      5.55012     12.48419        -0.036341      0.342299     -0.213585
      5.59237      1.01702     17.37345         0.002715     -0.001934      0.001525
      3.51249      3.50019     12.83519         0.003521     -0.057198     -0.221781
      3.33615      8.70760     17.28632        -0.000735     -0.002516      0.002047
      3.46798      5.87237     10.40868         0.062866     -0.247194     -0.062741
      3.49068      1.31668     15.19478         0.001021     -0.003168     -0.002298
     11.91771      8.21633     10.24534        -0.182595      0.025794      0.620923
     11.95687      3.68014     15.06369         0.001404      0.002197     -0.001449
      5.24135      3.36543     10.32679         0.156612      0.089234      0.176119
      5.20619      8.32925     15.08952         0.001066     -0.002069     -0.000032
      5.29399      6.21807     17.47246        -0.002145      0.000324      0.000668
      5.28930      0.99064     12.60849         0.124325     -0.001031     -0.387346
      1.60538      5.84491     12.85122         0.118677     -0.091656     -0.518345
      1.39839      1.57743     17.63604         0.002607     -0.002391     -0.000074
     13.72038      5.67134     10.18293         0.161413      0.131247      0.672742
     13.68743      1.09810     15.03416        -0.000947     -0.001699      0.000167
      1.63456      8.33987     10.36453         0.022735     -0.434487      0.158441
      1.65748      3.77155     15.38972        -0.001298     -0.003143     -0.001738
     13.76831      3.16119     12.53308         0.183188      0.387930     -0.279343
     13.71886      8.33899     17.29569        -0.002317     -0.003805      0.002411
      1.99440      3.17314     10.17666        -0.114644     -0.162593      0.656837
      1.86667      8.10672     14.97806         0.000015      0.000742      0.001820
     13.48051      8.37930     12.86886         0.200081      0.090399     -0.304856
     13.38187      4.17537     17.78009        -0.001590     -0.003757     -0.000219
      2.02601      6.03221     17.50056        -0.001898     -0.004622     -0.000572
      2.02729      0.87737     12.46815        -0.001274      0.379071     -0.405023
     10.07171      5.79402     10.14663         0.144523     -0.590723      0.135189
     10.18602      1.21807     14.88056         0.001670      0.000894     -0.001743
     11.97051      5.66181     12.67660        -0.318378      0.338935     -0.470369
     11.90168      1.41006     17.73257         0.001452     -0.003759      0.001284
      5.36280      8.47242     17.49775         0.001173     -0.002866      0.001064
     13.54745      2.31283     18.72078         0.003191     -0.002832      0.000763
      3.53007      1.18795     17.58699        -0.000974     -0.000720     -0.000765
     13.62540      6.31589     18.14072        -0.000982     -0.000526      0.000283
      3.72827      5.12191     18.41114         0.000553     -0.005684     -0.006133
      5.53566      2.71872     18.46543         0.006713      0.000177     -0.002874
     10.18002      0.51011     18.44713        -0.000500     -0.004288     -0.001049
 -----------------------------------------------------------------------------------
    total drift:                                0.000974      0.001788     -0.020962


--------------------------------------------------------------------------------------------------------



  FREE ENERGIE OF THE ION-ELECTRON SYSTEM (eV)
  ---------------------------------------------------
  free  energy   TOTEN  =      -578.19138247 eV

  energy  without entropy=     -578.19406042  energy(sigma->0) =     -578.19205195
 
 d Force = 0.2158878E-05[ 0.298E-05, 0.133E-05]  d Energy = 0.2480156E-06 0.191E-05
 d Force = 0.3135600E-01[ 0.314E-01, 0.314E-01]  d Ewald  = 0.3135566E-01 0.332E-06


--------------------------------------------------------------------------------------------------------


    POTLOK:  cpu time    0.0593: real time    0.0593


--------------------------------------------------------------------------------------------------------




--------------------------------------------------------------------------------------------------------


  
 reached required accuracy - stopping structural energy minimisation
     LOOP+:  cpu time   40.2506: real time   40.3108
    4ORBIT:  cpu time    0.0000: real time    0.0000

 total amount of memory used by VASP on root node    78933. kBytes
========================================================================

   base      :      30000. kBytes
   nonl-proj :      13836. kBytes
   fftplans  :       3278. kBytes
   grid      :       7939. kBytes
   one-center:         31. kBytes
   wavefun   :      23849. kBytes
 
  
  
 General timing and accounting informations for this job:
 ========================================================
  
                  Total CPU time used (sec):      768.367
                            User time (sec):      754.391
                          System time (sec):       13.976
                         Elapsed time (sec):      769.533
  
                   Maximum memory used (kb):      157132.
                   Average memory used (kb):           0.
  
                          Minor page faults:        44016
                          Major page faults:            0
                 Voluntary context switches:         6581
