 vasp.5.4.1 05Feb16 (build Mar 19 2020 08:54:17) complex                        
  
 executed on           IFC91_ompi date 2021.11.07  23:04:12
 running on   48 total cores
 distrk:  each k-point on   48 cores,    1 groups
 distr:  one band on NCORES_PER_BAND=  24 cores,    2 groups


--------------------------------------------------------------------------------------------------------


 INCAR:
 POTCAR:    PAW_PBE Al 04Jan2001                  
 POTCAR:    PAW_PBE Nb_sv 25May2007               
 POTCAR:    PAW_PBE Ta 17Jan2003                  
 POTCAR:    PAW_PBE Ti 08Apr2002                  
 POTCAR:   PAW_PBE Zr 08Apr2002                   
 POTCAR:    PAW_PBE O 08Apr2002                   

 ----------------------------------------------------------------------------- 
|                                                                             |
|           W    W    AA    RRRRR   N    N  II  N    N   GGGG   !!!           |
|           W    W   A  A   R    R  NN   N  II  NN   N  G    G  !!!           |
|           W    W  A    A  R    R  N N  N  II  N N  N  G       !!!           |
|           W WW W  AAAAAA  RRRRR   N  N N  II  N  N N  G  GGG   !            |
|           WW  WW  A    A  R   R   N   NN  II  N   NN  G    G                |
|           W    W  A    A  R    R  N    N  II  N    N   GGGG   !!!           |
|                                                                             |
|      For optimal performance we recommend to set                            |
|        NCORE= 4 - approx SQRT( number of cores)                             |
|      NCORE specifies how many cores store one orbital (NPAR=cpu/NCORE).     |
|      This setting can  greatly improve the performance of VASP for DFT.     |
|      The default, NPAR=number of cores might be grossly inefficient         |
|      on modern multi-core architectures or massively parallel machines.     |
|      Do your own testing !!!!                                               |
|      Unfortunately you need to use the default for GW and RPA calculations. |
|      (for HF NCORE is supported but not extensively tested yet)             |
|                                                                             |
 ----------------------------------------------------------------------------- 

 POTCAR:    PAW_PBE Al 04Jan2001                  
   VRHFIN =Al: s2p1                                                             
   LEXCH  = PE                                                                  
   EATOM  =    53.5387 eV,    3.9350 Ry                                         
                                                                                
   TITEL  = PAW_PBE Al 04Jan2001                                                
   LULTRA =        F    use ultrasoft PP ?                                      
   IUNSCR =        1    unscreen: 0-lin 1-nonlin 2-no                           
   RPACOR =    1.500    partial core radius                                     
   POMASS =   26.981; ZVAL   =    3.000    mass and valenz                      
   RCORE  =    1.900    outmost cutoff radius                                   
   RWIGS  =    2.650; RWIGS  =    1.402    wigner-seitz radius (au A)           
   ENMAX  =  240.300; ENMIN  =  180.225 eV                                      
   ICORE  =        2    local potential                                         
   LCOR   =        T    correct aug charges                                     
   LPAW   =        T    paw PP                                                  
   EAUG   =  291.052                                                            
   DEXC   =    0.000                                                            
   RMAX   =    1.939    core radius for proj-oper                               
   RAUG   =    1.300    factor for augmentation sphere                          
   RDEP   =    1.966    radius for radial grids                                 
   RDEPT  =    1.856    core radius for aug-charge                              
                                                                                
   Atomic configuration                                                         
    6 entries                                                                   
     n  l   j            E        occ.                                          
     1  0  0.50     -1511.1048   2.0000                                         
     2  0  0.50      -108.1629   2.0000                                         
     2  1  1.50       -69.6402   6.0000                                         
     3  0  0.50        -7.7528   2.0000                                         
     3  1  1.50        -2.7121   1.0000                                         
     3  2  2.50        -2.7212   0.0000                                         
   Description                                                                  
     l       E           TYP  RCUT    TYP  RCUT                                 
     0     -7.7528455     23  1.900                                             
     0     -3.3096929     23  1.900                                             
     1     -2.7120682     23  1.900                                             
     1     13.6058260     23  1.900                                             
     2     -2.7211652      7  1.900                                             
  local pseudopotential read in
  partial core-charges read in
  partial kinetic energy density read in
  atomic valenz-charges read in
  non local Contribution for L=           0  read in
    real space projection operators read in
  non local Contribution for L=           0  read in
    real space projection operators read in
  non local Contribution for L=           1  read in
    real space projection operators read in
  non local Contribution for L=           1  read in
    real space projection operators read in
    PAW grid and wavefunctions read in
 
   number of l-projection  operators is LMAX  =           4
   number of lm-projection operators is LMMAX =           8
 
 POTCAR:    PAW_PBE Nb_sv 25May2007               
   VRHFIN =Nb: 4p5s4d                                                           
   LEXCH  = PE                                                                  
   EATOM  =  1555.1913 eV,  114.3033 Ry                                         
                                                                                
   TITEL  = PAW_PBE Nb_sv 25May2007                                             
   LULTRA =        F    use ultrasoft PP ?                                      
   IUNSCR =        1    unscreen: 0-lin 1-nonlin 2-no                           
   RPACOR =    1.800    partial core radius                                     
   POMASS =   92.910; ZVAL   =   13.000    mass and valenz                      
   RCORE  =    2.400    outmost cutoff radius                                   
   RWIGS  =    2.400; RWIGS  =    1.270    wigner-seitz radius (au A)           
   ENMAX  =  293.235; ENMIN  =  219.927 eV                                      
   ICORE  =        3    local potential                                         
   LCOR   =        T    correct aug charges                                     
   LPAW   =        T    paw PP                                                  
   EAUG   =  455.659                                                            
   DEXC   =    0.000                                                            
   RMAX   =    2.456    core radius for proj-oper                               
   RAUG   =    1.300    factor for augmentation sphere                          
   RDEP   =    2.451    radius for radial grids                                 
   RDEPT  =    1.956    core radius for aug-charge                              
                                                                                
   Atomic configuration                                                         
   11 entries                                                                   
     n  l   j            E        occ.                                          
     1  0  0.50    -18805.2457   2.0000                                         
     2  0  0.50     -2630.2869   2.0000                                         
     2  1  1.50     -2348.4046   6.0000                                         
     3  0  0.50      -438.8757   2.0000                                         
     3  1  1.50      -346.7588   6.0000                                         
     3  2  2.50      -196.2560  10.0000                                         
     4  0  0.50       -58.3859   2.0000                                         
     5  0  0.50        -3.9816   1.0000                                         
     4  1  1.50       -34.5141   6.0000                                         
     4  2  2.50        -3.0408   4.0000                                         
     4  3  2.50        -1.3606   0.0000                                         
   Description                                                                  
     l       E           TYP  RCUT    TYP  RCUT                                 
     0    -58.3859094     23  2.200                                             
     0     -3.9816262     23  2.200                                             
     1    -34.5140738     23  2.200                                             
     1     13.6058260     23  2.200                                             
     2     -3.0408010     23  2.200                                             
     2     -0.1283038     23  2.200                                             
     3     -1.3605826     23  2.400                                             
  local pseudopotential read in
  partial core-charges read in
  partial kinetic energy density read in
  atomic valenz-charges read in
  non local Contribution for L=           0  read in
    real space projection operators read in
  non local Contribution for L=           0  read in
    real space projection operators read in
  non local Contribution for L=           1  read in
    real space projection operators read in
  non local Contribution for L=           1  read in
    real space projection operators read in
  non local Contribution for L=           2  read in
    real space projection operators read in
  non local Contribution for L=           2  read in
    real space projection operators read in
    PAW grid and wavefunctions read in
 
   number of l-projection  operators is LMAX  =           6
   number of lm-projection operators is LMMAX =          18
 
 POTCAR:    PAW_PBE Ta 17Jan2003                  
   VRHFIN =Ta:  6s5d                                                            
   LEXCH  = PE                                                                  
   EATOM  =   130.6506 eV,    9.6025 Ry                                         
                                                                                
   TITEL  = PAW_PBE Ta 17Jan2003                                                
   LULTRA =        F    use ultrasoft PP ?                                      
   IUNSCR =        1    unscreen: 0-lin 1-nonlin 2-no                           
   RPACOR =    2.330    partial core radius                                     
   POMASS =  180.948; ZVAL   =    5.000    mass and valenz                      
   RCORE  =    2.900    outmost cutoff radius                                   
   RWIGS  =    2.840; RWIGS  =    1.503    wigner-seitz radius (au A)           
   ENMAX  =  223.667; ENMIN  =  167.750 eV                                      
   RCLOC  =    2.205    cutoff for local pot                                    
   LCOR   =        T    correct aug charges                                     
   LPAW   =        T    paw PP                                                  
   EAUG   =  332.075                                                            
   DEXC   =    0.000                                                            
   RMAX   =    2.970    core radius for proj-oper                               
   RAUG   =    1.300    factor for augmentation sphere                          
   RDEP   =    3.060    radius for radial grids                                 
   RDEPT  =    2.354    core radius for aug-charge                              
                                                                                
   Atomic configuration                                                         
   16 entries                                                                   
     n  l   j            E        occ.                                          
     1  0  0.50    -67341.2807   2.0000                                         
     2  0  0.50    -11566.9376   2.0000                                         
     2  1  1.50    -10134.1182   6.0000                                         
     3  0  0.50     -2648.5620   2.0000                                         
     3  1  1.50     -2222.6012   6.0000                                         
     3  2  2.50     -1726.3120  10.0000                                         
     4  0  0.50      -538.6961   2.0000                                         
     4  1  1.50      -399.0129   6.0000                                         
     4  2  2.50      -220.3959  10.0000                                         
     4  3  3.50       -23.0374  14.0000                                         
     5  0  0.50       -71.2901   2.0000                                         
     5  1  1.50       -37.8225   6.0000                                         
     5  2  2.50        -2.6455   4.0000                                         
     6  0  0.50        -4.9623   1.0000                                         
     6  1  1.50        -1.3606   0.0000                                         
     5  3  2.50        -1.3606   0.0000                                         
   Description                                                                  
     l       E           TYP  RCUT    TYP  RCUT                                 
     2     -2.6455043     23  2.500                                             
     2     -0.6258895     23  2.500                                             
     0     -4.9622780     23  2.500                                             
     0      4.7531321     23  2.500                                             
     1     -1.3605826     23  2.900                                             
     1     27.2116520     23  2.900                                             
  local pseudopotential read in
  partial core-charges read in
  partial kinetic energy density read in
  atomic valenz-charges read in
  non local Contribution for L=           2  read in
    real space projection operators read in
  non local Contribution for L=           2  read in
    real space projection operators read in
  non local Contribution for L=           0  read in
    real space projection operators read in
  non local Contribution for L=           0  read in
    real space projection operators read in
  non local Contribution for L=           1  read in
    real space projection operators read in
  non local Contribution for L=           1  read in
    real space projection operators read in
    PAW grid and wavefunctions read in
 
   number of l-projection  operators is LMAX  =           6
   number of lm-projection operators is LMMAX =          18
 
 POTCAR:    PAW_PBE Ti 08Apr2002                  
   VRHFIN =Ti: d3 s1                                                            
   LEXCH  = PE                                                                  
   EATOM  =    94.7928 eV,    6.9671 Ry                                         
                                                                                
   TITEL  = PAW_PBE Ti 08Apr2002                                                
   LULTRA =        F    use ultrasoft PP ?                                      
   IUNSCR =        1    unscreen: 0-lin 1-nonlin 2-no                           
   RPACOR =    2.200    partial core radius                                     
   POMASS =   47.880; ZVAL   =    4.000    mass and valenz                      
   RCORE  =    2.800    outmost cutoff radius                                   
   RWIGS  =    2.500; RWIGS  =    1.323    wigner-seitz radius (au A)           
   ENMAX  =  178.330; ENMIN  =  133.747 eV                                      
   RCLOC  =    2.215    cutoff for local pot                                    
   LCOR   =        T    correct aug charges                                     
   LPAW   =        T    paw PP                                                  
   EAUG   =  328.883                                                            
   DEXC   =    0.000                                                            
   RMAX   =    2.868    core radius for proj-oper                               
   RAUG   =    1.300    factor for augmentation sphere                          
   RDEP   =    2.885    radius for radial grids                                 
   RDEPT  =    2.320    core radius for aug-charge                              
                                                                                
   Atomic configuration                                                         
    9 entries                                                                   
     n  l   j            E        occ.                                          
     1  0  0.50     -4865.3608   2.0000                                         
     2  0  0.50      -533.1367   2.0000                                         
     2  1  1.50      -440.5031   6.0000                                         
     3  0  0.50       -59.3186   2.0000                                         
     3  1  1.50       -35.7012   6.0000                                         
     3  2  2.50        -1.9157   3.0000                                         
     4  0  0.50        -3.7291   1.0000                                         
     4  1  1.50        -4.0817   0.0000                                         
     4  3  2.50        -1.3606   0.0000                                         
   Description                                                                  
     l       E           TYP  RCUT    TYP  RCUT                                 
     2     -1.9156924     23  2.800                                             
     2     -0.4062961     23  2.800                                             
     0     -3.7290832     23  2.800                                             
     0     20.4087390     23  2.800                                             
     1     -5.4423304     23  2.800                                             
  local pseudopotential read in
  partial core-charges read in
  partial kinetic energy density read in
  atomic valenz-charges read in
  non local Contribution for L=           2  read in
    real space projection operators read in
  non local Contribution for L=           2  read in
    real space projection operators read in
  non local Contribution for L=           0  read in
    real space projection operators read in
  non local Contribution for L=           0  read in
    real space projection operators read in
  non local Contribution for L=           1  read in
    real space projection operators read in
    PAW grid and wavefunctions read in
 
   number of l-projection  operators is LMAX  =           5
   number of lm-projection operators is LMMAX =          15
 
 POTCAR:   PAW_PBE Zr 08Apr2002                   
   VRHFIN =Zr: 5s4d5p                                                           
   LEXCH  = PE                                                                  
   EATOM  =    77.8472 eV,    5.7216 Ry                                         
                                                                                
   TITEL  = PAW_PBE Zr 08Apr2002                                                
   LULTRA =        F    use ultrasoft PP ?                                      
   IUNSCR =        1    unscreen: 0-lin 1-nonlin 2-no                           
   RPACOR =    2.200    partial core radius                                     
   POMASS =   91.224; ZVAL   =    4.000    mass and valenz                      
   RCORE  =    3.000    outmost cutoff radius                                   
   RWIGS  =    3.070; RWIGS  =    1.625    wigner-seitz radius (au A)           
   ENMAX  =  154.632; ENMIN  =  115.974 eV                                      
   RCLOC  =    2.213    cutoff for local pot                                    
   LCOR   =        T    correct aug charges                                     
   LPAW   =        T    paw PP                                                  
   EAUG   =  243.217                                                            
   DEXC   =    -.082                                                            
   RMAX   =    3.708    core radius for proj-oper                               
   RAUG   =    1.300    factor for augmentation sphere                          
   RDEP   =    3.146    radius for radial grids                                 
   QCUT   =   -3.371; QGAM   =    6.742    optimization parameters              
                                                                                
   Description                                                                  
     l     E      TYP  RCUT    TYP  RCUT                                        
     2   .000     23  3.000                                                     
     2   .000     23  3.000                                                     
     0   .000     23  3.000                                                     
     0  2.000     23  3.000                                                     
     1  -.400     23  3.000                                                     
     3   .000      7   .000                                                     
  local pseudopotential read in
  partial core-charges read in
  atomic valenz-charges read in
  non local Contribution for L=           2  read in
    real space projection operators read in
  non local Contribution for L=           2  read in
    real space projection operators read in
  non local Contribution for L=           0  read in
    real space projection operators read in
  non local Contribution for L=           0  read in
    real space projection operators read in
  non local Contribution for L=           1  read in
    real space projection operators read in
    PAW grid and wavefunctions read in
 
   number of l-projection  operators is LMAX  =           5
   number of lm-projection operators is LMMAX =          15
 
 POTCAR:    PAW_PBE O 08Apr2002                   
   VRHFIN =O: s2p4                                                              
   LEXCH  = PE                                                                  
   EATOM  =   432.3788 eV,   31.7789 Ry                                         
                                                                                
   TITEL  = PAW_PBE O 08Apr2002                                                 
   LULTRA =        F    use ultrasoft PP ?                                      
   IUNSCR =        1    unscreen: 0-lin 1-nonlin 2-no                           
   RPACOR =    1.200    partial core radius                                     
   POMASS =   16.000; ZVAL   =    6.000    mass and valenz                      
   RCORE  =    1.520    outmost cutoff radius                                   
   RWIGS  =    1.550; RWIGS  =    0.820    wigner-seitz radius (au A)           
   ENMAX  =  400.000; ENMIN  =  300.000 eV                                      
   ICORE  =        2    local potential                                         
   LCOR   =        T    correct aug charges                                     
   LPAW   =        T    paw PP                                                  
   EAUG   =  605.392                                                            
   DEXC   =    0.000                                                            
   RMAX   =    1.553    core radius for proj-oper                               
   RAUG   =    1.300    factor for augmentation sphere                          
   RDEP   =    1.550    radius for radial grids                                 
   RDEPT  =    1.329    core radius for aug-charge                              
                                                                                
   Atomic configuration                                                         
    4 entries                                                                   
     n  l   j            E        occ.                                          
     1  0  0.50      -514.6923   2.0000                                         
     2  0  0.50       -23.9615   2.0000                                         
     2  1  0.50        -9.0305   4.0000                                         
     3  2  1.50        -9.5241   0.0000                                         
   Description                                                                  
     l       E           TYP  RCUT    TYP  RCUT                                 
     0    -23.9615318     23  1.200                                             
     0     -9.5240782     23  1.200                                             
     1     -9.0304911     23  1.520                                             
     1      8.1634956     23  1.520                                             
     2     -9.5240782      7  1.500                                             
  local pseudopotential read in
  partial core-charges read in
  partial kinetic energy density read in
  kinetic energy density of atom read in
  atomic valenz-charges read in
  non local Contribution for L=           0  read in
    real space projection operators read in
  non local Contribution for L=           0  read in
    real space projection operators read in
  non local Contribution for L=           1  read in
    real space projection operators read in
  non local Contribution for L=           1  read in
    real space projection operators read in
    PAW grid and wavefunctions read in
 
   number of l-projection  operators is LMAX  =           4
   number of lm-projection operators is LMMAX =           8
 

 ----------------------------------------------------------------------------- 
|                                                                             |
|  ADVICE TO THIS USER RUNNING 'VASP/VAMP'   (HEAR YOUR MASTER'S VOICE ...):  |
|                                                                             |
|      You have a (more or less) 'large supercell' and for larger cells       |
|      it might be more efficient to use real space projection opertators     |
|      So try LREAL= Auto  in the INCAR   file.                               |
|      Mind: At the moment your POTCAR file does not contain real space       |
|       projectors, and has to be modified,  BUT if you                       |
|      want to do an extremely  accurate calculation you might also keep the  |
|      reciprocal projection scheme          (i.e. LREAL=.FALSE.)             |
|                                                                             |
 ----------------------------------------------------------------------------- 

 WARNING: PSMAXN for non-local potential too small
          PSMAXN should be >   12.5490833729506       NTYP=           5
  PAW_PBE Al 04Jan2001                  :
 energy of atom  1       EATOM=  -53.5387
 kinetic energy error for atom=    0.0002 (will be added to EATOM!!)
  PAW_PBE Nb_sv 25May2007               :
 energy of atom  2       EATOM=-1555.1913
 kinetic energy error for atom=    0.0037 (will be added to EATOM!!)
  PAW_PBE Ta 17Jan2003                  :
 energy of atom  3       EATOM= -130.6506
 kinetic energy error for atom=    0.0004 (will be added to EATOM!!)
  PAW_PBE Ti 08Apr2002                  :
 energy of atom  4       EATOM=  -94.7928
 kinetic energy error for atom=    0.0001 (will be added to EATOM!!)
 PAW_PBE Zr 08Apr2002                   :
 energy of atom  5       EATOM=  -77.8472
 kinetic energy error for atom=    0.0001 (will be added to EATOM!!)
  PAW_PBE O 08Apr2002                   :
 energy of atom  6       EATOM= -432.3788
 kinetic energy error for atom=    0.0168 (will be added to EATOM!!)
 
 
 POSCAR: Al Nb Ta Ti Zr                          
  positions in direct lattice
  velocities in cartesian coordinates
 exchange correlation table for  LEXCH =        8
   RHO(1)=    0.500       N(1)  =     2000
   RHO(2)=  100.500       N(2)  =     4000
 


--------------------------------------------------------------------------------------------------------


 ion  position               nearest neighbor table
   1  0.623  0.867  0.376-  34 2.83  25 2.88  24 2.88   9 2.88  13 2.90   4 2.91  61 2.93  15 3.16
                            41 3.35  17 3.40
   2  0.626  0.393  0.537-  90 1.82  86 1.93  31 2.61   7 2.65  33 2.68  23 2.71  26 2.96  17 2.97
                            62 3.01  16 3.13  10 3.20  42 3.26
   3  0.597  0.654  0.639-  75 1.78  78 1.82  79 1.84  86 1.86  85 2.04  32 2.67  23 2.88  26 2.90
                             8 2.92  45 2.98  14 3.12  33 3.14
   4  0.618  0.084  0.450-  31 2.80  24 2.86  34 2.87  13 2.88   1 2.91  25 2.92   7 2.92  62 3.05
                            28 3.16  10 3.21  46 3.24
   5  0.975  0.637  0.545-  82 2.04  88 2.06  30 2.72  63 2.83  42 2.87  52 2.95  47 2.96  27 3.08
                            56 3.14  57 3.17  59 3.47
   6  0.980  0.121  0.378-  29 2.80  28 2.80  53 2.91  41 2.96  51 3.05  55 3.05  60 3.08  57 3.37

   7  0.729  0.343  0.458-   2 2.65  28 2.77  29 2.83  31 2.85  17 2.89  11 2.90   4 2.92  63 3.07
                            62 3.20  42 3.28
   8  0.736  0.885  0.635-  78 2.08  71 2.10  77 2.22  79 2.32  83 2.36  27 2.69  18 2.88   3 2.92
                            32 2.97  30 2.97  12 3.00  64 3.08  62 3.37
   9  0.517  0.608  0.367-  35 2.84  15 2.85  17 2.87   1 2.88  11 2.89  61 2.95  43 3.10
  10  0.503  0.113  0.550-  90 2.10  16 2.65  12 2.77  36 2.88  44 2.93  18 3.04  46 3.08  62 3.16
                             2 3.20   4 3.21  40 3.45
  11  0.618  0.343  0.369-  24 2.75  34 2.83  31 2.87   9 2.89   7 2.90  61 2.96  43 3.27
  12  0.610  0.868  0.546-  85 2.33  10 2.77  23 2.81  62 2.92  25 2.93  13 2.97   8 3.00  33 3.00
                            32 3.04  44 3.17
  13  0.742  0.843  0.462-  30 2.60  17 2.87   4 2.88   1 2.90  28 2.94  12 2.97  63 2.98  41 3.05
                            57 3.27  62 3.47
  14  0.758  0.426  0.646-  76 2.01  74 2.02  89 2.04  79 2.14  42 2.89  58 2.92  27 2.93   3 3.12
                            64 3.26  18 3.29
  15  0.394  0.847  0.369-  22 2.68  19 2.76  25 2.83  34 2.84   9 2.85  39 2.98   1 3.16  46 3.43

  16  0.402  0.345  0.536-  84 2.15  87 2.23  10 2.65  31 2.66  33 2.79  20 2.84  21 2.84  37 2.85
                            26 2.90  40 2.92   2 3.13  46 3.21
  17  0.619  0.602  0.458-  33 2.80  25 2.81  31 2.85   9 2.87  13 2.87   7 2.89  61 2.95   2 2.97
                            35 3.03  23 3.15   1 3.40  63 3.44
  18  0.626  0.140  0.641-  72 1.99  90 2.01  71 2.03  74 2.08  89 2.51  32 2.62  26 2.86   8 2.88
                            10 3.04  36 3.05  62 3.07  14 3.29  64 3.46
  19  0.279  0.834  0.451-  15 2.76  35 2.94  46 2.96  44 2.96  39 2.97  25 2.99  60 3.07  51 3.08
                            47 3.12  56 3.20
  20  0.284  0.367  0.620-  70 2.03  69 2.12  67 2.16  87 2.19  84 2.23  16 2.84  36 2.93  21 2.98
                            59 3.03  26 3.07  40 3.08  48 3.16  52 3.24  45 3.34
  21  0.276  0.580  0.542-  84 2.10  80 2.11  87 2.16  82 2.16  16 2.84  20 2.98  37 2.98  59 3.02
                            35 3.03  33 3.05  44 3.07  47 3.08  56 3.10  52 3.19  45 3.41
  22  0.283  0.077  0.361-  15 2.68  46 2.97  43 2.97  34 2.99  51 3.02  55 3.10  60 3.10
  23  0.728  0.629  0.558-  79 2.10  86 2.21  30 2.63   2 2.71  12 2.81   3 2.88  42 2.94  27 3.12
                            17 3.15  63 3.39
  24  0.740  0.115  0.366-  29 2.73  11 2.75  28 2.85   4 2.86   1 2.88  41 3.00
  25  0.496  0.836  0.458-  35 2.78  17 2.81  15 2.83   1 2.88  44 2.90   4 2.92  12 2.93  19 2.99
                            46 2.99  33 3.15
  26  0.507  0.382  0.626-  70 1.96  74 2.06  86 2.14  75 2.15  87 2.28  90 2.32  18 2.86  36 2.89
                            16 2.90   3 2.90   2 2.96  20 3.07  45 3.36
  27  0.872  0.685  0.642-  76 1.98  77 1.99  68 2.00  79 2.02   8 2.69  58 2.84  14 2.93  54 2.94
                             5 3.08  23 3.12
  28  0.847  0.110  0.455-   7 2.77   6 2.80  24 2.85  57 2.90  62 2.93  13 2.94  53 2.98  29 3.15
                             4 3.16  50 3.27  41 3.36
  29  0.852  0.349  0.376-  24 2.73   6 2.80   7 2.83  53 2.94  61 2.98  49 3.07  28 3.15  63 3.25

  30  0.841  0.846  0.542-  83 2.00  88 2.20  13 2.60  23 2.63   5 2.72  57 2.86   8 2.97  50 2.99
                            62 3.01  63 3.38
  31  0.522  0.339  0.461-   2 2.61  16 2.66   4 2.80  17 2.85   7 2.85  35 2.86  11 2.87  46 2.95
                            43 3.11
  32  0.522  0.911  0.646-  78 1.91  72 1.97  65 2.06  85 2.07  36 2.59  18 2.62   3 2.67  45 2.96
                             8 2.97  12 3.04  44 3.44
  33  0.497  0.602  0.538-  86 2.10  85 2.16  87 2.22   2 2.68  35 2.75  16 2.79  17 2.80  44 2.98
                            12 3.00  21 3.05   3 3.14  25 3.15  45 3.50
  34  0.499  0.102  0.365-  11 2.83   1 2.83  15 2.84   4 2.87  43 2.91  46 2.98  22 2.99
  35  0.400  0.580  0.451-  33 2.75  25 2.78   9 2.84  31 2.86  37 2.88  39 2.93  19 2.94  17 3.03
                            21 3.03  43 3.08
  36  0.405  0.122  0.642-  70 1.97  72 2.00  67 2.07  65 2.19  32 2.59  10 2.88  26 2.89  20 2.93
                            38 2.94  18 3.05  40 3.34
  37  0.255  0.366  0.464-  84 2.16  16 2.85  35 2.88  21 2.98  47 3.02  60 3.04  43 3.05  55 3.08
                            46 3.08  40 3.24  52 3.34  39 3.39
  38  0.237  0.931  0.637-  73 1.94  65 2.02  67 2.10  80 2.22  54 2.82  56 2.89  36 2.94  48 2.97
                            40 3.12  59 3.16  45 3.16  44 3.27
  39  0.252  0.614  0.376-  35 2.93  19 2.97  15 2.98  47 3.07  43 3.07  51 3.07  55 3.08  37 3.39
                            49 3.53
  40  0.253  0.129  0.547-  84 2.26  67 2.43  16 2.92  56 3.05  60 3.07  44 3.08  20 3.08  46 3.12
                            38 3.12  37 3.24  52 3.28  48 3.31  36 3.34  10 3.45  50 3.74
  41  0.865  0.859  0.370-   6 2.96  24 3.00  61 3.05  13 3.05  57 3.06  49 3.12   1 3.35  28 3.36
                            51 3.49  63 3.53
  42  0.860  0.388  0.556-  89 2.26  81 2.28   5 2.87  14 2.89  23 2.94  62 3.15  52 3.19  58 3.21
                             2 3.26   7 3.28  63 3.33  50 3.41  53 3.47  64 3.64
  43  0.381  0.352  0.373-  34 2.91  22 2.97  37 3.05  39 3.07  35 3.08   9 3.10  31 3.11  55 3.26
                            11 3.27  46 3.29
  44  0.380  0.864  0.545-  80 2.30  85 2.39  25 2.90  10 2.93  19 2.96  33 2.98  21 3.07  40 3.08
                            12 3.17  56 3.18  38 3.27  45 3.37  46 3.37  32 3.44
  45  0.382  0.676  0.648-  75 2.04  69 2.05  65 2.19  87 2.21  80 2.22  85 2.28  32 2.96   3 2.98
                            38 3.16  59 3.19  20 3.34  26 3.36  44 3.37  21 3.41  33 3.50
  46  0.384  0.104  0.456-  31 2.95  19 2.96  22 2.97  34 2.98  25 2.99  10 3.08  37 3.08  40 3.12
                            16 3.21   4 3.24  60 3.27  43 3.29  44 3.37  15 3.43
  47  0.117  0.611  0.465-  82 2.36   5 2.96  37 3.02  39 3.07  21 3.08  19 3.12  53 3.14  49 3.15
                            57 3.17  56 3.23  52 3.32  63 3.42  51 3.52  55 3.80
  48  0.103  0.173  0.640-  66 2.13  67 2.13  81 2.28  38 2.97  54 2.97  58 3.09  50 3.09  52 3.10
                            20 3.16  64 3.17  40 3.31
  49  0.996  0.593  0.368-  63 3.05  29 3.07  41 3.12  47 3.15  51 3.16  55 3.23  53 3.44  39 3.53
                            61 3.65  57 3.82
  50  0.984  0.080  0.551-  81 2.22  83 2.25  88 2.35  30 2.99  57 3.07  48 3.09  56 3.19  64 3.22
                            52 3.23  28 3.27  54 3.36  42 3.41  62 3.49  60 3.56  53 3.61  40 3.74
  51  0.119  0.872  0.375-  60 3.00  22 3.02   6 3.05  39 3.07  19 3.08  57 3.16  49 3.16  41 3.49
                            47 3.52
  52  0.092  0.380  0.553-  84 2.16  81 2.25  82 2.31   5 2.95  53 3.08  48 3.10  42 3.19  21 3.19
                            50 3.23  20 3.24  40 3.28  59 3.30  47 3.32  37 3.34  58 3.37
  53  1.000  0.331  0.453-   6 2.91  29 2.94  28 2.98  60 3.06  52 3.08  63 3.08  55 3.09  47 3.14
                            49 3.44  42 3.47  50 3.61
  54  0.037  0.878  0.646-  73 2.15  77 2.17  68 2.24  88 2.29  38 2.82  27 2.94  59 2.96  48 2.97
                            56 3.17  64 3.29  50 3.36
  55  0.145  0.332  0.368-   6 3.05  37 3.08  39 3.08  53 3.09  22 3.10  49 3.23  60 3.24  43 3.26
                            47 3.80
  56  0.149  0.847  0.547-  82 2.23  88 2.24  80 2.36  38 2.89  40 3.05  21 3.10   5 3.14  54 3.17
                            44 3.18  50 3.19  59 3.19  19 3.20  47 3.23  57 3.26  60 3.53
  57  0.979  0.876  0.465-  88 2.86  30 2.86  28 2.90  41 3.06  50 3.07  63 3.11  60 3.13  51 3.16
                            47 3.17   5 3.17  56 3.26  13 3.27   6 3.37  49 3.82
  58  0.969  0.427  0.657-  66 2.11  76 2.12  68 2.20  81 2.25  27 2.84  14 2.92  48 3.09  64 3.11
                            42 3.21  59 3.26  52 3.37
  59  0.156  0.623  0.632-  68 2.11  69 2.11  73 2.17  80 2.25  82 2.32  54 2.96  21 3.02  20 3.03
                            38 3.16  45 3.19  56 3.19  58 3.26  52 3.30   5 3.47
  60  0.147  0.092  0.451-  51 3.00  37 3.04  53 3.06  40 3.07  19 3.07   6 3.08  22 3.10  57 3.13
                            55 3.24  46 3.27  56 3.53  50 3.56
  61  0.731  0.606  0.367-   1 2.93  17 2.95   9 2.95  11 2.96  29 2.98  41 3.05  63 3.17  49 3.65

  62  0.732  0.118  0.544-  83 2.18  89 2.24  90 2.30  12 2.92  28 2.93  30 3.01   2 3.01   4 3.05
                            18 3.07  42 3.15  10 3.16   7 3.20   8 3.37  13 3.47  50 3.49  64 3.60
  63  0.869  0.592  0.458-   5 2.83  13 2.98  49 3.05   7 3.07  53 3.08  57 3.11  61 3.17  29 3.25
                            42 3.33  30 3.38  23 3.39  47 3.42  17 3.44  41 3.53
  64  0.876  0.131  0.652-  71 2.10  66 2.13  89 2.15  83 2.21  77 2.43  81 2.46   8 3.08  58 3.11
                            48 3.17  50 3.22  14 3.26  54 3.29  18 3.46  62 3.60  42 3.64
  65  0.375  0.903  0.659-  38 2.02  32 2.06  36 2.19  45 2.19
  66  0.992  0.229  0.690-  58 2.11  64 2.13  48 2.13
  67  0.257  0.149  0.635-  36 2.07  38 2.10  48 2.13  20 2.16  40 2.43
  68  0.012  0.648  0.656-  27 2.00  59 2.11  58 2.20  54 2.24
  69  0.276  0.538  0.669-  45 2.05  59 2.11  20 2.12
  70  0.396  0.316  0.665-  26 1.96  36 1.97  20 2.03
  71  0.740  0.064  0.679-  18 2.03   8 2.10  64 2.10
  72  0.519  0.083  0.685-  32 1.97  18 1.99  36 2.00
  73  0.169  0.803  0.679-  38 1.94  54 2.15  59 2.17
  74  0.630  0.344  0.667-  14 2.02  26 2.06  18 2.08
  75  0.502  0.568  0.670-   3 1.78  45 2.04  26 2.15
  76  0.849  0.532  0.689-  27 1.98  14 2.01  58 2.12
  77  0.885  0.881  0.666-  27 1.99  54 2.17   8 2.22  64 2.43
  78  0.623  0.805  0.676-   3 1.82  32 1.91   8 2.08
  79  0.730  0.642  0.633-   3 1.84  27 2.02  23 2.10  14 2.14   8 2.32
  80  0.273  0.743  0.593-  21 2.11  38 2.22  45 2.22  59 2.25  44 2.30  56 2.36
  81  0.978  0.270  0.597-  50 2.22  52 2.25  58 2.25  42 2.28  48 2.28  64 2.46
  82  0.122  0.617  0.550-   5 2.04  21 2.16  56 2.23  52 2.31  59 2.32  47 2.36
  83  0.844  0.013  0.586-  30 2.00  62 2.18  64 2.21  50 2.25   8 2.36
  84  0.246  0.365  0.542-  21 2.10  16 2.15  52 2.16  37 2.16  20 2.23  40 2.26
  85  0.498  0.754  0.596-   3 2.04  32 2.07  33 2.16  45 2.28  12 2.33  44 2.39
  86  0.598  0.525  0.588-   3 1.86   2 1.93  33 2.10  26 2.14  23 2.21
  87  0.390  0.516  0.591-  21 2.16  20 2.19  45 2.21  33 2.22  16 2.23  26 2.28
  88  0.992  0.840  0.567-   5 2.06  30 2.20  56 2.24  54 2.29  50 2.35  57 2.86
  89  0.778  0.247  0.607-  14 2.04  64 2.15  62 2.24  42 2.26  18 2.51
  90  0.609  0.247  0.579-   2 1.82  18 2.01  10 2.10  62 2.30  26 2.32
 
  LATTYP: Found a simple orthorhombic cell.
 ALAT       =     9.5644817352
 B/A-ratio  =     1.4398428730
 C/A-ratio  =     2.8922184390
  
  Lattice vectors:
  
 A1 = (   0.0000000000,  -9.5644817352,   0.0000000000)
 A2 = ( -13.7713508606,   0.0000000000,   0.0000000000)
 A3 = (   0.0000000000,   0.0000000000, -27.6625704340)


Analysis of symmetry for initial positions (statically):
=====================================================================
 Subroutine PRICEL returns:
 Original cell was already a primitive cell.
 

 Routine SETGRP: Setting up the symmetry group for a 
 simple orthorhombic supercell.


 Subroutine GETGRP returns: Found  1 space group operations
 (whereof  1 operations were pure point group operations)
 out of a pool of  8 trial point group operations.


The static configuration has the point symmetry C_1 .


Analysis of symmetry for dynamics (positions and initial velocities):
=====================================================================
 Subroutine PRICEL returns:
 Original cell was already a primitive cell.
 

 Routine SETGRP: Setting up the symmetry group for a 
 simple orthorhombic supercell.


 Subroutine GETGRP returns: Found  1 space group operations
 (whereof  1 operations were pure point group operations)
 out of a pool of  8 trial point group operations.


The dynamic configuration has the point symmetry C_1 .


Analysis of constrained symmetry for selective dynamics:
=====================================================================
 Subroutine PRICEL returns:
 Original cell was already a primitive cell.
 

 Routine SETGRP: Setting up the symmetry group for a 
 simple orthorhombic supercell.


 Subroutine GETGRP returns: Found  1 space group operations
 (whereof  1 operations were pure point group operations)
 out of a pool of  8 trial point group operations.


The constrained configuration has the point symmetry C_1 .


 Subroutine INISYM returns: Found  1 space group operations
 (whereof  1 operations are pure point group operations),
 and found     1 'primitive' translations

 
 
 KPOINTS: k-points                                

Automatic generation of k-mesh.
Space group operators:
 irot       det(A)        alpha          n_x          n_y          n_z        tau_x        tau_y        tau_z
    1     1.000000     0.000000     1.000000     0.000000     0.000000     0.000000     0.000000     0.000000
 
 Subroutine IBZKPT returns following result:
 ===========================================
 
 Found      5 irreducible k-points:
 
 Following reciprocal coordinates:
            Coordinates               Weight
  0.000000  0.000000  0.000000      1.000000
  0.333333  0.000000  0.000000      2.000000
  0.000000  0.333333  0.000000      2.000000
  0.333333  0.333333  0.000000      2.000000
 -0.333333  0.333333  0.000000      2.000000
 
 Following cartesian coordinates:
            Coordinates               Weight
  0.000000  0.000000  0.000000      1.000000
  0.024205  0.000000  0.000000      2.000000
  0.000000  0.034851  0.000000      2.000000
  0.024205  0.034851  0.000000      2.000000
 -0.024205  0.034851  0.000000      2.000000
 


--------------------------------------------------------------------------------------------------------




 Dimension of arrays:
   k-points           NKPTS =      5   k-points in BZ     NKDIM =      5   number of bands    NBANDS=    300
   number of dos      NEDOS =    301   number of ions     NIONS =     90
   non local maximal  LDIM  =      6   non local SUM 2l+1 LMDIM =     18
   total plane-waves  NPLWV = 846720
   max r-space proj   IRMAX =      1   max aug-charges    IRDMAX=  25433
   dimension x,y,z NGX =    84 NGY =   60 NGZ =  168
   dimension x,y,z NGXF=   168 NGYF=  120 NGZF=  336
   support grid    NGXF=   168 NGYF=  120 NGZF=  336
   ions per type =               6  10   4  18  26  26
 NGX,Y,Z   is equivalent  to a cutoff of  10.14, 10.43, 10.10 a.u.
 NGXF,Y,Z  is equivalent  to a cutoff of  20.28, 20.86, 20.19 a.u.


 I would recommend the setting:
   dimension x,y,z NGX =    83 NGY =   57 NGZ =  166
 SYSTEM =  (110) surface                           
 POSCAR =  Al Nb Ta Ti Zr                          

 Startparameter for this run:
   NWRITE =      2    write-flag & timer
   PREC   = normal    normal or accurate (medium, high low for compatibility)
   ISTART =      0    job   : 0-new  1-cont  2-samecut
   ICHARG =      2    charge: 1-file 2-atom 10-const
   ISPIN  =      1    spin polarized calculation?
   LNONCOLLINEAR =      F non collinear calculations
   LSORBIT =      F    spin-orbit coupling
   INIWAV =      1    electr: 0-lowe 1-rand  2-diag
   LASPH  =      F    aspherical Exc in radial PAW
   METAGGA=      F    non-selfconsistent MetaGGA calc.

 Electronic Relaxation 1
   ENCUT  =  600.0 eV  44.10 Ry    6.64 a.u.  27.50 19.10 55.25*2*pi/ulx,y,z
   ENINI  =  600.0     initial cutoff
   ENAUG  =  605.4 eV  augmentation charge cutoff
   NELM   =     60;   NELMIN=  2; NELMDL= -5     # of ELM steps 
   EDIFF  = 0.1E-03   stopping-criterion for ELM
   LREAL  =      F    real-space projection
   NLSPLINE    = F    spline interpolate recip. space projectors
   LCOMPAT=      F    compatible to vasp.4.4
   GGA_COMPAT  = T    GGA compatible to vasp.4.4-vasp.4.6
   LMAXPAW     = -100 max onsite density
   LMAXMIX     =    2 max onsite mixed and CHGCAR
   VOSKOWN=      0    Vosko Wilk Nusair interpolation
   ROPT   =    0.00000   0.00000   0.00000   0.00000
   ROPT   =    0.00000   0.00000
 Ionic relaxation
   EDIFFG = 0.1E-02   stopping-criterion for IOM
   NSW    =      0    number of steps for IOM
   NBLOCK =      1;   KBLOCK =      1    inner block; outer block 
   IBRION =     -1    ionic relax: 0-MD 1-quasi-New 2-CG
   NFREE  =      0    steps in history (QN), initial steepest desc. (CG)
   ISIF   =      2    stress and relaxation
   IWAVPR =     10    prediction:  0-non 1-charg 2-wave 3-comb
   ISYM   =      2    0-nonsym 1-usesym 2-fastsym
   LCORR  =      T    Harris-Foulkes like correction to forces

   POTIM  = 0.1000    time-step for ionic-motion
   TEIN   =    0.0    initial temperature
   TEBEG  =    0.0;   TEEND  =   0.0 temperature during run
   SMASS  =  -3.00    Nose mass-parameter (am)
   estimated Nose-frequenzy (Omega)   =  0.10E-29 period in steps =****** mass=  -0.433E-26a.u.
   SCALEE = 1.0000    scale energy and forces
   NPACO  =    256;   APACO  = 16.0  distance and # of slots for P.C.
   PSTRESS=    0.0 pullay stress

  Mass of Ions in am
   POMASS =  26.98 92.91180.95 47.88 91.22 16.00
  Ionic Valenz
   ZVAL   =   3.00 13.00  5.00  4.00  4.00  6.00
  Atomic Wigner-Seitz radii
   RWIGS  =  -1.00 -1.00 -1.00 -1.00 -1.00 -1.00
  virtual crystal weights 
   VCA    =   1.00  1.00  1.00  1.00  1.00  1.00
   NELECT =     500.0000    total number of electrons
   NUPDOWN=      -1.0000    fix difference up-down

 DOS related values:
   EMIN   =  10.00;   EMAX   =-10.00  energy-range for DOS
   EFERMI =   0.00
   ISMEAR =     2;   SIGMA  =   0.10  broadening in eV -4-tet -1-fermi 0-gaus

 Electronic relaxation 2 (details)
   IALGO  =     68    algorithm
   LDIAG  =      T    sub-space diagonalisation (order eigenvalues)
   LSUBROT=      F    optimize rotation matrix (better conditioning)
   TURBO    =      0    0=normal 1=particle mesh
   IRESTART =      0    0=no restart 2=restart with 2 vectors
   NREBOOT  =      0    no. of reboots
   NMIN     =      0    reboot dimension
   EREF     =   0.00    reference energy to select bands
   IMIX   =      4    mixing-type and parameters
     AMIX     =   0.40;   BMIX     =  1.00
     AMIX_MAG =   1.60;   BMIX_MAG =  1.00
     AMIN     =   0.10
     WC   =   100.;   INIMIX=   1;  MIXPRE=   1;  MAXMIX= -45

 Intra band minimization:
   WEIMIN = 0.0000     energy-eigenvalue tresh-hold
   EBREAK =  0.83E-07  absolut break condition
   DEPER  =   0.30     relativ break condition  

   TIME   =   0.40     timestep for ELM

  volume/ion in A,a.u.               =      40.48       273.20
  Fermi-wavevector in a.u.,A,eV,Ry     =   0.844413  1.595708  9.701396  0.713032
  Thomas-Fermi vector in A             =   1.959437
 
 Write flags
   LWAVE  =      F    write WAVECAR
   LCHARG =      T    write CHGCAR
   LVTOT  =      F    write LOCPOT, total local potential
   LVHAR  =      F    write LOCPOT, Hartree potential only
   LELF   =      F    write electronic localiz. function (ELF)
   LORBIT =      0    0 simple, 1 ext, 2 COOP (PROOUT)


 Dipole corrections
   LMONO  =      F    monopole corrections only (constant potential shift)
   LDIPOL =      F    correct potential (dipole corrections)
   IDIPOL =      0    1-x, 2-y, 3-z, 4-all directions 
   EPSILON=  1.0000000 bulk dielectric constant

 Exchange correlation treatment:
   GGA     =    --    GGA type
   LEXCH   =     8    internal setting for exchange type
   VOSKOWN=      0    Vosko Wilk Nusair interpolation
   LHFCALC =     F    Hartree Fock is set to
   LHFONE  =     F    Hartree Fock one center treatment
   AEXX    =    0.0000 exact exchange contribution

 Linear response parameters
   LEPSILON=     F    determine dielectric tensor
   LRPA    =     F    only Hartree local field effects (RPA)
   LNABLA  =     F    use nabla operator in PAW spheres
   LVEL    =     F    velocity operator in full k-point grid
   LINTERFAST=   F  fast interpolation
   KINTER  =     0    interpolate to denser k-point grid
   CSHIFT  =0.1000    complex shift for real part using Kramers Kronig
   OMEGAMAX=  -1.0    maximum frequency
   DEG_THRESHOLD= 0.2000000E-02 threshold for treating states as degnerate
   RTIME   =    0.100 relaxation time in fs

 Orbital magnetization related:
   ORBITALMAG=     F  switch on orbital magnetization
   LCHIMAG   =     F  perturbation theory with respect to B field
   DQ        =  0.001000  dq finite difference perturbation B field



--------------------------------------------------------------------------------------------------------


 Static calculation
 charge density and potential will be updated during run
 non-spin polarized calculation
 RMM-DIIS sequential band-by-band and
  variant of blocked Davidson during initial phase
 perform sub-space diagonalisation
    before iterative eigenvector-optimisation
 modified Broyden-mixing scheme, WC =      100.0
 initial mixing is a Kerker type mixing with AMIX =  0.4000 and BMIX =      1.0000
 Hartree-type preconditioning will be used
 using additional bands           50
 reciprocal scheme for non local part
 use partial core corrections
 calculate Harris-corrections to forces 
   (improved forces if not selfconsistent)
 use gradient corrections 
 use of overlap-Matrix (Vanderbilt PP)
 Methfessel and Paxton  Order N= 2 SIGMA  =   0.10


--------------------------------------------------------------------------------------------------------


  energy-cutoff  :      600.00
  volume of cell :     3643.60
      direct lattice vectors                 reciprocal lattice vectors
    13.771350861  0.000000000  0.000000000     0.072614518  0.000000000  0.000000000
     0.000000000  9.564481735  0.000000000     0.000000000  0.104553496  0.000000000
     0.000000000  0.000000000 27.662570434     0.000000000  0.000000000  0.036149931

  length of vectors
    13.771350861  9.564481735 27.662570434     0.072614518  0.104553496  0.036149931


 
 k-points in units of 2pi/SCALE and weight: k-points                                
   0.00000000  0.00000000  0.00000000       0.111
   0.02420484  0.00000000  0.00000000       0.222
   0.00000000  0.03485117  0.00000000       0.222
   0.02420484  0.03485117  0.00000000       0.222
  -0.02420484  0.03485117  0.00000000       0.222
 
 k-points in reciprocal lattice and weights: k-points                                
   0.00000000  0.00000000  0.00000000       0.111
   0.33333333  0.00000000  0.00000000       0.222
   0.00000000  0.33333333  0.00000000       0.222
   0.33333333  0.33333333  0.00000000       0.222
  -0.33333333  0.33333333  0.00000000       0.222
 
 position of ions in fractional coordinates (direct lattice) 
   0.62276447  0.86746430  0.37590333
   0.62644638  0.39347284  0.53736390
   0.59694765  0.65409047  0.63853286
   0.61839700  0.08363760  0.44965952
   0.97467629  0.63661045  0.54462276
   0.97963780  0.12056648  0.37767599
   0.72857308  0.34338307  0.45816820
   0.73595787  0.88495528  0.63473126
   0.51739597  0.60805875  0.36719826
   0.50325193  0.11254698  0.54990133
   0.61811078  0.34297293  0.36889183
   0.61049237  0.86820355  0.54638914
   0.74231148  0.84345710  0.46199300
   0.75831546  0.42609947  0.64624800
   0.39405298  0.84738672  0.36896032
   0.40160930  0.34452672  0.53629999
   0.61928761  0.60162497  0.45752798
   0.62607125  0.14010277  0.64077338
   0.27944195  0.83362269  0.45088327
   0.28441132  0.36738159  0.62029335
   0.27593884  0.57973715  0.54179221
   0.28324246  0.07725573  0.36149931
   0.72757084  0.62927014  0.55755662
   0.74002355  0.11549973  0.36646499
   0.49591756  0.83582580  0.45790018
   0.50694863  0.38184382  0.62622434
   0.87188415  0.68476170  0.64216275
   0.84724605  0.11017048  0.45460239
   0.85243583  0.34907103  0.37639265
   0.84129143  0.84591925  0.54197990
   0.52175105  0.33942658  0.46105252
   0.52239317  0.91065530  0.64590961
   0.49653357  0.60182256  0.53824641
   0.49943882  0.10200214  0.36464270
   0.40016663  0.58028412  0.45130253
   0.40483861  0.12189477  0.64161795
   0.25505811  0.36595738  0.46399110
   0.23747860  0.93100077  0.63670755
   0.25182599  0.61397660  0.37627308
   0.25334091  0.12851669  0.54737725
   0.86539888  0.85904646  0.37036829
   0.86034166  0.38829673  0.55581360
   0.38059813  0.35186696  0.37331264
   0.38012844  0.86370689  0.54503797
   0.38195137  0.67645768  0.64811211
   0.38408008  0.10357511  0.45579618
   0.11657381  0.61110574  0.46457054
   0.10293834  0.17344346  0.63952425
   0.99629861  0.59295863  0.36811234
   0.98403436  0.08028840  0.55063094
   0.11869311  0.87196302  0.37467704
   0.09152467  0.37989733  0.55312269
   0.99977952  0.33051389  0.45306987
   0.03730928  0.87790647  0.64621076
   0.14482272  0.33176249  0.36788561
   0.14944020  0.84728095  0.54655108
   0.97888047  0.87608504  0.46520830
   0.96901239  0.42676808  0.65742984
   0.15583604  0.62267361  0.63173438
   0.14721048  0.09173214  0.45072276
   0.73135245  0.60578495  0.36679988
   0.73208825  0.11811956  0.54361700
   0.86923259  0.59196168  0.45825814
   0.87580161  0.13104761  0.65240505
   0.37539130  0.90291142  0.65910482
   0.99242529  0.22944145  0.68986112
   0.25664161  0.14865053  0.63476338
   0.01184388  0.64843349  0.65642764
   0.27605247  0.53798538  0.66910728
   0.39621367  0.31640814  0.66466083
   0.74046461  0.06361370  0.67887324
   0.51890808  0.08298513  0.68456706
   0.16872506  0.80316858  0.67901399
   0.62953607  0.34390485  0.66692125
   0.50184432  0.56785645  0.66994741
   0.84945669  0.53248044  0.68918867
   0.88484981  0.88055436  0.66579086
   0.62297812  0.80521332  0.67644297
   0.72961453  0.64243942  0.63319466
   0.27324262  0.74266109  0.59326464
   0.97762638  0.26973995  0.59710857
   0.12211416  0.61720736  0.54972025
   0.84431333  0.01310790  0.58562961
   0.24646917  0.36454943  0.54208290
   0.49814702  0.75401644  0.59569813
   0.59839368  0.52541127  0.58824769
   0.38976116  0.51603669  0.59069744
   0.99228892  0.83965130  0.56749396
   0.77816672  0.24734623  0.60707919
   0.60929976  0.24679893  0.57864475
 
 position of ions in cartesian coordinates  (Angst):
   8.57630799  8.29684649 10.39845223
   8.62701292  3.76336382 14.86486666
   8.22077547  6.25603631 17.66346015
   8.51616202  0.79995025 12.43873821
  13.42260918  6.08884902 15.06566548
  13.49093588  1.15315590 10.44748880
  10.03343557  3.28428114 12.67411000
  10.13513409  8.46413861 17.55829832
   7.12524148  5.81576681 10.15764776
   6.93045892  1.07645357 15.21168436
   8.51222037  3.28035836 10.20449636
   8.40730456  8.30391699 15.11452814
  10.22263181  8.06723005 12.77991378
  10.44302820  4.07542061 17.87688080
   5.42664188  8.10481479 10.20639088
   5.53070264  3.29521956 14.83543632
   8.52842696  5.75423100 12.65640004
   8.62184683  1.34001041 17.72543883
   3.84829318  7.97316903 12.47259035
   3.91672804  3.51381452 17.15890862
   3.80005064  5.54488537 14.98736511
   3.90063135  0.73891098 10.00000000
  10.01963330  6.01864278 15.42344931
  10.19112400  1.10469510 10.13736353
   6.82945470  7.99424061 12.66669595
   6.98136745  3.65213829 17.32297483
  12.00702259  6.54939074 17.76387238
  11.66772263  1.05372358 12.57547056
  11.73919286  3.33868345 10.41198829
  11.58571942  8.09077926 14.99255705
   7.18521672  3.24643930 12.75389771
   7.19405969  8.70994597 17.86752011
   6.83793807  5.75612085 14.88927933
   6.87794726  0.97559764 10.08695433
   5.51083508  5.55011685 12.48418803
   5.57517459  1.16586031 17.74880161
   3.51249472  3.50019267 12.83518635
   3.27040106  8.90453985 17.61296757
   3.46798404  5.87236796 10.40868071
   3.48884653  1.22919557 15.14186171
  11.91771166  8.21633417 10.24533883
  11.84806679  3.71385695 15.37523278
   5.24135036  3.36542512 10.32678719
   5.23488217  8.26090876 15.07715127
   5.25998628  6.46996716 17.92844696
   5.28930157  0.99064225 12.60849381
   1.60537885  5.84490969 12.85121538
   1.41760000  1.65889677 17.69088465
  13.72037774  5.67134198 10.18293350
  13.55148241  0.76791697 15.23186725
   1.63456451  8.33987442 10.36453009
   1.26041840  3.63352106 15.30079530
  13.76831459  3.16119411 12.53307716
   0.51379923  8.39672039 17.87585054
   1.99440444  3.17313630 10.17666150
   2.05799337  8.10380320 15.11900774
  13.48050634  8.37929939 12.86885734
  13.34460967  4.08181554 18.18619926
   2.14607274  5.95555035 17.47539685
   2.02728715  0.87737042 12.46815015
  10.07171117  5.79401911 10.14662739
  10.08184419  1.12975234 15.03784366
  11.97050705  5.66180669 12.67659812
  12.06097122  1.25340243 18.04720065
   5.16964534  8.63587980 18.23253345
  13.66703688  2.19448856 19.08333182
   3.53430159  1.42176526 17.55918667
   0.16310621  6.20193023 18.15847595
   3.80161542  5.14555133 18.50922713
   5.45639750  3.02627984 18.38622715
  10.19719794  0.60843212 18.77937893
   7.14606521  0.79370972 18.93688462
   2.32357204  7.68189121 18.78327235
   8.66956207  3.28927170 18.44875608
   6.91107417  5.43125265 18.53246730
  11.69816613  5.09289943 19.06473000
  12.18557716  8.42204614 18.41748655
   8.57925033  7.70144808 18.71215131
  10.04777766  6.14460012 17.51579190
   3.76291996  7.10316845 16.41122481
  13.46323593  2.57992281 16.51755790
   1.68167697  5.90326850 15.20667504
  11.62733515  0.12537029 16.20002044
   3.39421342  3.48672632 14.99540633
   6.86015736  7.21177645 16.47854142
   8.24068931  5.02528652 16.27244315
   5.36753774  4.93562354 16.34020948
  13.66515891  8.03082954 15.69834160
  10.71640691  2.36573845 16.79337083
   8.39088080  2.36050388 16.00680125
 


--------------------------------------------------------------------------------------------------------


 k-point  1 :   0.0000 0.0000 0.0000  plane waves:  121663
 k-point  2 :   0.3333 0.0000 0.0000  plane waves:  121577
 k-point  3 :   0.0000 0.3333 0.0000  plane waves:  121622
 k-point  4 :   0.3333 0.3333 0.0000  plane waves:  121647
 k-point  5 :  -0.3333 0.3333 0.0000  plane waves:  121647

 maximum and minimum number of plane-waves per node :      5107     5041

 maximum number of plane-waves:    121663
 maximum index in each direction: 
   IXMAX=   27   IYMAX=   19   IZMAX=   55
   IXMIN=  -27   IYMIN=  -19   IZMIN=  -55

 WARNING: aliasing errors must be expected set NGX to 110 to avoid them
 WARNING: aliasing errors must be expected set NGY to  78 to avoid them
 WARNING: aliasing errors must be expected set NGZ to 222 to avoid them
 aliasing errors are usually negligible using standard VASP settings
 and one can safely disregard these warnings

 parallel 3D FFT for wavefunctions:
    minimum data exchange during FFTs selected (reduces bandwidth)
 parallel 3D FFT for charge:
    minimum data exchange during FFTs selected (reduces bandwidth)


 total amount of memory used by VASP on root node   143242. kBytes
========================================================================

   base      :      30000. kBytes
   nonl-proj :      29226. kBytes
   fftplans  :       6516. kBytes
   grid      :      15878. kBytes
   one-center:         62. kBytes
   wavefun   :      61560. kBytes
 
     INWAV:  cpu time    0.0000: real time    0.0000
 Broyden mixing: mesh for mixing (old mesh)
   NGX = 55   NGY = 39   NGZ =111
  (NGX  =168   NGY  =120   NGZ  =336)
  gives a total of 238095 points

 initial charge density was supplied:
 charge density of overlapping atoms calculated
 number of electron     500.0000000 magnetization 
 keeping initial charge density in first step


--------------------------------------------------------------------------------------------------------


 Maximum index for augmentation-charges         1033 (set IRDMAX)


--------------------------------------------------------------------------------------------------------


 First call to EWALD:  gamma=   0.115
 Maximum number of real-space cells 3x 4x 2
 Maximum number of reciprocal cells 3x 2x 5

 FEWALD executed in parallel
    FEWALD:  cpu time    0.0035: real time    0.0038


----------------------------------------- Iteration    1(   1)  ---------------------------------------


    POTLOK:  cpu time    0.1137: real time    0.1194
    SETDIJ:  cpu time    0.0148: real time    0.0179
     EDDAV:  cpu time   24.1931: real time   24.2274
       DOS:  cpu time    0.0018: real time    0.0018
    --------------------------------------------
      LOOP:  cpu time   24.3271: real time   24.3758

 eigenvalue-minimisations  :  3136
 total energy-change (2. order) : 0.6724581E+04  (-0.1950947E+05)
 number of electron     500.0000000 magnetization 
 augmentation part      500.0000000 magnetization 

 Free energy of the ion-electron system (eV)
  ---------------------------------------------------
  alpha Z        PSCENC =       820.35992584
  Ewald energy   TEWEN  =    139735.45620355
  -Hartree energ DENC   =   -167946.05555760
  -exchange      EXHF   =         0.00000000
  -V(xc)+E(xc)   XCENC  =     -2358.29127102
  PAW double counting   =     28449.56752231   -24405.09918038
  entropy T*S    EENTRO =        -0.00647475
  eigenvalues    EBANDS =      1061.23564309
  atomic energy  EATOM  =     31367.41405126
  Solvation  Ediel_sol  =         0.00000000
  ---------------------------------------------------
  free energy    TOTEN  =      6724.58086231 eV

  energy without entropy =     6724.58733706  energy(sigma->0) =     6724.58248100


--------------------------------------------------------------------------------------------------------




----------------------------------------- Iteration    1(   2)  ---------------------------------------


     EDDAV:  cpu time   24.0166: real time   24.0166
       DOS:  cpu time    0.0016: real time    0.0016
    --------------------------------------------
      LOOP:  cpu time   24.0199: real time   24.0211

 eigenvalue-minimisations  :  3108
 total energy-change (2. order) :-0.5594040E+04  (-0.5419552E+04)
 number of electron     500.0000000 magnetization 
 augmentation part      500.0000000 magnetization 

 Free energy of the ion-electron system (eV)
  ---------------------------------------------------
  alpha Z        PSCENC =       820.35992584
  Ewald energy   TEWEN  =    139735.45620355
  -Hartree energ DENC   =   -167946.05555760
  -exchange      EXHF   =         0.00000000
  -V(xc)+E(xc)   XCENC  =     -2358.29127102
  PAW double counting   =     28449.56752231   -24405.09918038
  entropy T*S    EENTRO =        -0.00198757
  eigenvalues    EBANDS =     -4532.80926004
  atomic energy  EATOM  =     31367.41405126
  Solvation  Ediel_sol  =         0.00000000
  ---------------------------------------------------
  free energy    TOTEN  =      1130.54044635 eV

  energy without entropy =     1130.54243393  energy(sigma->0) =     1130.54094325


--------------------------------------------------------------------------------------------------------




----------------------------------------- Iteration    1(   3)  ---------------------------------------


     EDDAV:  cpu time   37.6820: real time   37.6836
       DOS:  cpu time    0.0017: real time    0.0017
    --------------------------------------------
      LOOP:  cpu time   37.6850: real time   37.6938

 eigenvalue-minimisations  :  5400
 total energy-change (2. order) :-0.1730523E+04  (-0.1676592E+04)
 number of electron     500.0000000 magnetization 
 augmentation part      500.0000000 magnetization 

 Free energy of the ion-electron system (eV)
  ---------------------------------------------------
  alpha Z        PSCENC =       820.35992584
  Ewald energy   TEWEN  =    139735.45620355
  -Hartree energ DENC   =   -167946.05555760
  -exchange      EXHF   =         0.00000000
  -V(xc)+E(xc)   XCENC  =     -2358.29127102
  PAW double counting   =     28449.56752231   -24405.09918038
  entropy T*S    EENTRO =         0.00973834
  eigenvalues    EBANDS =     -6263.34378103
  atomic energy  EATOM  =     31367.41405126
  Solvation  Ediel_sol  =         0.00000000
  ---------------------------------------------------
  free energy    TOTEN  =      -599.98234872 eV

  energy without entropy =     -599.99208706  energy(sigma->0) =     -599.98478330


--------------------------------------------------------------------------------------------------------




----------------------------------------- Iteration    1(   4)  ---------------------------------------


     EDDAV:  cpu time   32.3035: real time   32.3037
       DOS:  cpu time    0.0019: real time    0.0019
    --------------------------------------------
      LOOP:  cpu time   32.3066: real time   32.3135

 eigenvalue-minimisations  :  4496
 total energy-change (2. order) :-0.2582527E+03  (-0.2512125E+03)
 number of electron     500.0000000 magnetization 
 augmentation part      500.0000000 magnetization 

 Free energy of the ion-electron system (eV)
  ---------------------------------------------------
  alpha Z        PSCENC =       820.35992584
  Ewald energy   TEWEN  =    139735.45620355
  -Hartree energ DENC   =   -167946.05555760
  -exchange      EXHF   =         0.00000000
  -V(xc)+E(xc)   XCENC  =     -2358.29127102
  PAW double counting   =     28449.56752231   -24405.09918038
  entropy T*S    EENTRO =         0.00168412
  eigenvalues    EBANDS =     -6521.58837886
  atomic energy  EATOM  =     31367.41405126
  Solvation  Ediel_sol  =         0.00000000
  ---------------------------------------------------
  free energy    TOTEN  =      -858.23500076 eV

  energy without entropy =     -858.23668489  energy(sigma->0) =     -858.23542179


--------------------------------------------------------------------------------------------------------




----------------------------------------- Iteration    1(   5)  ---------------------------------------


     EDDAV:  cpu time   37.9925: real time   37.9925
       DOS:  cpu time    0.0018: real time    0.0018
    CHARGE:  cpu time    0.3728: real time    0.3738
    MIXING:  cpu time    0.0075: real time    0.0084
    --------------------------------------------
      LOOP:  cpu time   38.3765: real time   38.3851

 eigenvalue-minimisations  :  5448
 total energy-change (2. order) :-0.1881539E+02  (-0.1841677E+02)
 number of electron     500.0000104 magnetization 
 augmentation part       60.1816255 magnetization 

 Broyden mixing:
  rms(total) = 0.87299E+01    rms(broyden)= 0.87297E+01
  rms(prec ) = 0.91419E+01
  weight for this iteration     100.00

 Free energy of the ion-electron system (eV)
  ---------------------------------------------------
  alpha Z        PSCENC =       820.35992584
  Ewald energy   TEWEN  =    139735.45620355
  -Hartree energ DENC   =   -167946.05555760
  -exchange      EXHF   =         0.00000000
  -V(xc)+E(xc)   XCENC  =     -2358.29127102
  PAW double counting   =     28449.56752231   -24405.09918038
  entropy T*S    EENTRO =         0.00047904
  eigenvalues    EBANDS =     -6540.40256694
  atomic energy  EATOM  =     31367.41405126
  Solvation  Ediel_sol  =         0.00000000
  ---------------------------------------------------
  free energy    TOTEN  =      -877.05039393 eV

  energy without entropy =     -877.05087297  energy(sigma->0) =     -877.05051369


--------------------------------------------------------------------------------------------------------




----------------------------------------- Iteration    1(   6)  ---------------------------------------


    POTLOK:  cpu time    0.0999: real time    0.0999
    SETDIJ:  cpu time    0.0097: real time    0.0097
    EDDIAG:  cpu time    1.4821: real time    1.4834
  RMM-DIIS:  cpu time   26.9468: real time   26.9470
    ORTHCH:  cpu time    0.3983: real time    0.3983
       DOS:  cpu time    0.0018: real time    0.0018
    CHARGE:  cpu time    0.3731: real time    0.3731
    MIXING:  cpu time    0.0054: real time    0.0079
    --------------------------------------------
      LOOP:  cpu time   29.3188: real time   29.3295

 eigenvalue-minimisations  :  4888
 total energy-change (2. order) : 0.5049436E+01  (-0.1550892E+03)
 number of electron     500.0000075 magnetization 
 augmentation part       73.4601231 magnetization 

 Broyden mixing:
  rms(total) = 0.51633E+01    rms(broyden)= 0.51629E+01
  rms(prec ) = 0.64670E+01
  weight for this iteration     100.00

 eigenvalues of (default mixing * dielectric matrix)
  average eigenvalue GAMMA=   0.8042
  0.8042

 Free energy of the ion-electron system (eV)
  ---------------------------------------------------
  alpha Z        PSCENC =       820.35992584
  Ewald energy   TEWEN  =    139735.45620355
  -Hartree energ DENC   =   -169036.27405599
  -exchange      EXHF   =         0.00000000
  -V(xc)+E(xc)   XCENC  =     -2310.62955588
  PAW double counting   =     33957.22164117   -29926.12754764
  entropy T*S    EENTRO =         0.01271277
  eigenvalues    EBANDS =     -5479.43433305
  atomic energy  EATOM  =     31367.41405126
  Solvation  Ediel_sol  =         0.00000000
  ---------------------------------------------------
  free energy    TOTEN  =      -872.00095796 eV

  energy without entropy =     -872.01367074  energy(sigma->0) =     -872.00413616


--------------------------------------------------------------------------------------------------------




----------------------------------------- Iteration    1(   7)  ---------------------------------------


    POTLOK:  cpu time    0.0969: real time    0.0969
    SETDIJ:  cpu time    0.0094: real time    0.0094
    EDDIAG:  cpu time    1.4748: real time    1.4748
  RMM-DIIS:  cpu time   23.2567: real time   23.2567
    ORTHCH:  cpu time    0.3982: real time    0.3982
       DOS:  cpu time    0.0018: real time    0.0018
    CHARGE:  cpu time    0.3709: real time    0.3709
    MIXING:  cpu time    0.0037: real time    0.0041
    --------------------------------------------
      LOOP:  cpu time   25.6138: real time   25.6205

 eigenvalue-minimisations  :  4198
 total energy-change (2. order) :-0.1713271E+02  (-0.4257370E+02)
 number of electron     500.0000094 magnetization 
 augmentation part       71.6304601 magnetization 

 Broyden mixing:
  rms(total) = 0.47296E+01    rms(broyden)= 0.47296E+01
  rms(prec ) = 0.77089E+01
  weight for this iteration     100.00

 eigenvalues of (default mixing * dielectric matrix)
  average eigenvalue GAMMA=   0.6953
  1.0190  0.3716

 Free energy of the ion-electron system (eV)
  ---------------------------------------------------
  alpha Z        PSCENC =       820.35992584
  Ewald energy   TEWEN  =    139735.45620355
  -Hartree energ DENC   =   -168187.49907168
  -exchange      EXHF   =         0.00000000
  -V(xc)+E(xc)   XCENC  =     -2317.07499656
  PAW double counting   =     34985.19167276   -30966.75766286
  entropy T*S    EENTRO =         0.00146643
  eigenvalues    EBANDS =     -6326.22525912
  atomic energy  EATOM  =     31367.41405126
  Solvation  Ediel_sol  =         0.00000000
  ---------------------------------------------------
  free energy    TOTEN  =      -889.13367037 eV

  energy without entropy =     -889.13513680  energy(sigma->0) =     -889.13403698


--------------------------------------------------------------------------------------------------------




----------------------------------------- Iteration    1(   8)  ---------------------------------------


    POTLOK:  cpu time    0.0959: real time    0.0959
    SETDIJ:  cpu time    0.0094: real time    0.0094
    EDDIAG:  cpu time    1.4961: real time    1.4961
  RMM-DIIS:  cpu time   26.2326: real time   26.2326
    ORTHCH:  cpu time    0.3955: real time    0.3955
       DOS:  cpu time    0.0018: real time    0.0018
    CHARGE:  cpu time    0.3789: real time    0.3789
    MIXING:  cpu time    0.0039: real time    0.0045
    --------------------------------------------
      LOOP:  cpu time   28.6157: real time   28.6235

 eigenvalue-minimisations  :  4743
 total energy-change (2. order) : 0.6842581E+02  (-0.2490323E+02)
 number of electron     500.0000081 magnetization 
 augmentation part       60.3968175 magnetization 

 Broyden mixing:
  rms(total) = 0.37780E+01    rms(broyden)= 0.37780E+01
  rms(prec ) = 0.55739E+01
  weight for this iteration     100.00

 eigenvalues of (default mixing * dielectric matrix)
  average eigenvalue GAMMA=   0.6517
  1.2796  0.4196  0.2559

 Free energy of the ion-electron system (eV)
  ---------------------------------------------------
  alpha Z        PSCENC =       820.35992584
  Ewald energy   TEWEN  =    139735.45620355
  -Hartree energ DENC   =   -168754.41302124
  -exchange      EXHF   =         0.00000000
  -V(xc)+E(xc)   XCENC  =     -2319.00371510
  PAW double counting   =     36115.51223666   -32100.89095634
  entropy T*S    EENTRO =        -0.00728274
  eigenvalues    EBANDS =     -5685.13530531
  atomic energy  EATOM  =     31367.41405126
  Solvation  Ediel_sol  =         0.00000000
  ---------------------------------------------------
  free energy    TOTEN  =      -820.70786342 eV

  energy without entropy =     -820.70058068  energy(sigma->0) =     -820.70604273


--------------------------------------------------------------------------------------------------------




----------------------------------------- Iteration    1(   9)  ---------------------------------------


    POTLOK:  cpu time    0.0956: real time    0.0956
    SETDIJ:  cpu time    0.0094: real time    0.0094
    EDDIAG:  cpu time    1.4930: real time    1.4930
  RMM-DIIS:  cpu time   23.2280: real time   23.2281
    ORTHCH:  cpu time    0.3980: real time    0.3980
       DOS:  cpu time    0.0018: real time    0.0018
    CHARGE:  cpu time    0.3698: real time    0.3698
    MIXING:  cpu time    0.0039: real time    0.0039
    --------------------------------------------
      LOOP:  cpu time   25.6008: real time   25.6061

 eigenvalue-minimisations  :  4156
 total energy-change (2. order) : 0.4909344E+02  (-0.7640650E+01)
 number of electron     500.0000083 magnetization 
 augmentation part       61.8479274 magnetization 

 Broyden mixing:
  rms(total) = 0.23616E+01    rms(broyden)= 0.23615E+01
  rms(prec ) = 0.28086E+01
  weight for this iteration     100.00

 eigenvalues of (default mixing * dielectric matrix)
  average eigenvalue GAMMA=   0.7026
  1.6032  0.4961  0.4961  0.2149

 Free energy of the ion-electron system (eV)
  ---------------------------------------------------
  alpha Z        PSCENC =       820.35992584
  Ewald energy   TEWEN  =    139735.45620355
  -Hartree energ DENC   =   -168645.80440894
  -exchange      EXHF   =         0.00000000
  -V(xc)+E(xc)   XCENC  =     -2316.80740719
  PAW double counting   =     37310.39589499   -33288.97180042
  entropy T*S    EENTRO =         0.00075814
  eigenvalues    EBANDS =     -5753.65764044
  atomic energy  EATOM  =     31367.41405126
  Solvation  Ediel_sol  =         0.00000000
  ---------------------------------------------------
  free energy    TOTEN  =      -771.61442321 eV

  energy without entropy =     -771.61518136  energy(sigma->0) =     -771.61461275


--------------------------------------------------------------------------------------------------------




----------------------------------------- Iteration    1(  10)  ---------------------------------------


    POTLOK:  cpu time    0.0957: real time    0.0957
    SETDIJ:  cpu time    0.0094: real time    0.0094
    EDDIAG:  cpu time    1.4924: real time    1.4924
  RMM-DIIS:  cpu time   22.9802: real time   22.9802
    ORTHCH:  cpu time    0.3982: real time    0.3982
       DOS:  cpu time    0.0018: real time    0.0018
    CHARGE:  cpu time    0.3698: real time    0.3698
    MIXING:  cpu time    0.0042: real time    0.0042
    --------------------------------------------
      LOOP:  cpu time   25.3534: real time   25.3601

 eigenvalue-minimisations  :  4135
 total energy-change (2. order) : 0.8782538E+01  (-0.8108093E+01)
 number of electron     500.0000084 magnetization 
 augmentation part       66.9159512 magnetization 

 Broyden mixing:
  rms(total) = 0.13820E+01    rms(broyden)= 0.13820E+01
  rms(prec ) = 0.16680E+01
  weight for this iteration     100.00

 eigenvalues of (default mixing * dielectric matrix)
  average eigenvalue GAMMA=   0.7418
  1.9542  0.6899  0.4936  0.3743  0.1971

 Free energy of the ion-electron system (eV)
  ---------------------------------------------------
  alpha Z        PSCENC =       820.35992584
  Ewald energy   TEWEN  =    139735.45620355
  -Hartree energ DENC   =   -168792.12079971
  -exchange      EXHF   =         0.00000000
  -V(xc)+E(xc)   XCENC  =     -2311.30574688
  PAW double counting   =     38479.31555431   -34449.08225724
  entropy T*S    EENTRO =         0.00201608
  eigenvalues    EBANDS =     -5612.87083224
  atomic energy  EATOM  =     31367.41405126
  Solvation  Ediel_sol  =         0.00000000
  ---------------------------------------------------
  free energy    TOTEN  =      -762.83188504 eV

  energy without entropy =     -762.83390112  energy(sigma->0) =     -762.83238906


--------------------------------------------------------------------------------------------------------




----------------------------------------- Iteration    1(  11)  ---------------------------------------


    POTLOK:  cpu time    0.0959: real time    0.0959
    SETDIJ:  cpu time    0.0094: real time    0.0094
    EDDIAG:  cpu time    1.4962: real time    1.4963
  RMM-DIIS:  cpu time   25.0404: real time   25.0404
    ORTHCH:  cpu time    0.3975: real time    0.3975
       DOS:  cpu time    0.0018: real time    0.0018
    CHARGE:  cpu time    0.3710: real time    0.3710
    MIXING:  cpu time    0.0043: real time    0.0043
    --------------------------------------------
      LOOP:  cpu time   27.4178: real time   27.4240

 eigenvalue-minimisations  :  4522
 total energy-change (2. order) : 0.8165855E+00  (-0.4481922E+01)
 number of electron     500.0000083 magnetization 
 augmentation part       67.0409390 magnetization 

 Broyden mixing:
  rms(total) = 0.12097E+01    rms(broyden)= 0.12097E+01
  rms(prec ) = 0.14974E+01
[...]
   -.345E+03 -.432E+01 0.148E+04   0.345E+03 0.382E+01 -.148E+04   -.746E+00 0.932E+00 -.114E+01   -.238E-02 0.381E-02 0.691E-03
   -.312E+03 0.350E+02 -.162E+04   0.315E+03 -.358E+02 0.162E+04   -.271E+01 0.768E+00 0.127E+01   0.158E-03 -.525E-04 -.254E-02
   0.285E+03 -.124E+03 0.212E+04   -.285E+03 0.125E+03 -.212E+04   0.289E+00 -.417E+00 -.427E+01   0.658E-03 -.145E-02 0.389E-02
   0.262E+03 0.671E+02 0.575E+03   -.260E+03 -.689E+02 -.577E+03   -.181E+01 0.178E+01 0.206E+01   -.165E-02 -.633E-02 0.960E-03
   -.348E+02 -.173E+02 0.495E+03   0.340E+02 0.171E+02 -.495E+03   0.993E+00 0.227E+00 0.701E-01   -.193E-03 0.169E-03 -.574E-03
   0.214E+02 0.196E+02 -.624E+03   -.231E+02 -.205E+02 0.625E+03   0.170E+01 0.853E+00 -.779E+00   0.120E-03 0.455E-03 -.161E-02
   0.166E+03 -.228E+02 0.473E+03   -.165E+03 0.227E+02 -.474E+03   -.152E+01 0.353E+00 0.626E+00   0.131E-03 0.859E-03 -.124E-03
   0.236E+03 0.431E+02 -.491E+03   -.235E+03 -.419E+02 0.492E+03   -.487E+00 -.115E+01 -.924E+00   -.528E-03 -.541E-03 -.118E-02
   0.107E+03 -.689E+02 0.171E+03   -.106E+03 0.698E+02 -.174E+03   -.105E+01 -.857E+00 0.240E+01   -.632E-03 -.498E-03 -.618E-03
   0.116E+03 -.537E+02 0.646E+03   -.114E+03 0.537E+02 -.643E+03   -.840E+00 -.153E+00 -.272E+01   -.349E-04 0.191E-03 0.141E-02
   -.146E+03 0.363E+02 0.120E+03   0.146E+03 -.355E+02 -.122E+03   -.791E+00 -.825E+00 0.162E+01   -.694E-04 -.161E-03 -.256E-03
   -.990E+02 0.608E+02 0.697E+03   0.984E+02 -.603E+02 -.694E+03   0.445E+00 -.384E+00 -.286E+01   -.643E-03 0.979E-03 0.823E-03
   0.627E+02 -.272E+02 0.404E+03   -.636E+02 0.265E+02 -.404E+03   0.917E+00 0.807E+00 -.692E+00   -.404E-03 0.108E-02 -.334E-03
   0.629E+02 0.222E+02 -.425E+03   -.633E+02 -.226E+02 0.427E+03   0.317E+00 0.389E+00 -.203E+01   -.238E-03 -.249E-03 -.101E-02
   -.152E+03 0.109E+02 -.399E+03   0.152E+03 -.114E+02 0.399E+03   0.310E-01 0.550E+00 -.973E-01   0.348E-03 0.117E-03 -.452E-03
   -.157E+03 0.166E+01 0.433E+03   0.157E+03 -.189E+01 -.434E+03   0.537E+00 -.666E-01 0.233E-01   -.361E-03 0.808E-03 -.161E-03
   -.148E+03 -.460E+01 0.663E+03   0.147E+03 0.463E+01 -.660E+03   0.809E+00 -.124E+00 -.260E+01   -.532E-03 -.149E-02 0.959E-03
   -.141E+03 0.504E+02 0.157E+03   0.139E+03 -.503E+02 -.158E+03   0.167E+01 -.988E-01 0.453E+00   0.143E-03 0.756E-03 -.563E-03
   0.647E+02 0.211E+02 0.439E+03   -.645E+02 -.207E+02 -.440E+03   -.188E+00 0.795E-02 -.698E+00   0.122E-03 -.112E-02 -.424E-03
   0.102E+03 -.142E+02 -.528E+03   -.101E+03 0.157E+02 0.527E+03   -.104E+01 -.152E+01 0.507E+00   0.567E-03 -.137E-03 -.965E-03
   0.592E+02 -.360E+02 0.205E+03   -.590E+02 0.364E+02 -.208E+03   -.276E+00 -.456E+00 0.274E+01   -.854E-04 0.792E-04 -.331E-03
   0.316E+02 0.162E+01 0.677E+03   -.323E+02 -.164E+01 -.674E+03   0.603E+00 -.310E-01 -.254E+01   0.602E-03 0.699E-04 0.927E-03
   0.123E+03 -.271E+01 0.418E+03   -.122E+03 0.270E+01 -.418E+03   -.958E+00 0.685E+00 -.444E+00   -.515E-03 0.372E-03 -.854E-03
   0.120E+03 0.338E+02 -.481E+03   -.118E+03 -.323E+02 0.479E+03   -.172E+01 -.145E+01 0.140E+01   -.185E-03 0.103E-02 -.156E-02
   0.131E+03 0.196E+02 0.483E+03   -.131E+03 -.195E+02 -.485E+03   0.270E-01 -.501E+00 0.156E+01   -.660E-03 -.864E-03 -.442E-03
   0.101E+03 -.599E+02 -.403E+03   -.102E+03 0.598E+02 0.403E+03   0.135E+01 0.935E-01 0.410E+00   -.774E-03 0.160E-03 -.129E-02
   0.125E+03 0.365E+02 0.621E+03   -.125E+03 -.362E+02 -.618E+03   0.181E+00 -.531E+00 -.300E+01   0.125E-03 -.291E-03 0.794E-03
   0.147E+03 0.910E+02 0.935E+02   -.147E+03 -.917E+02 -.946E+02   -.582E+00 0.750E+00 0.108E+01   0.375E-04 0.239E-03 -.129E-02
   -.947E+02 -.198E+01 0.668E+03   0.950E+02 0.203E+01 -.664E+03   -.457E+00 -.742E-01 -.325E+01   -.111E-03 0.138E-02 0.849E-03
   -.146E+03 -.402E+02 0.122E+03   0.145E+03 0.405E+02 -.122E+03   0.527E+00 -.307E+00 -.107E+00   0.503E-03 -.512E-03 -.838E-03
   0.127E+03 0.312E+02 0.645E+03   -.126E+03 -.315E+02 -.643E+03   -.233E+00 0.343E+00 -.245E+01   -.333E-03 0.137E-03 0.547E-03
   0.146E+03 -.313E+02 0.123E+03   -.146E+03 0.325E+02 -.125E+03   0.927E-02 -.121E+01 0.233E+01   0.939E-05 0.134E-02 -.145E-02
   0.960E+02 -.442E+02 -.585E+03   -.954E+02 0.418E+02 0.583E+03   -.613E+00 0.243E+01 0.173E+01   -.991E-04 -.536E-03 -.327E-03
   0.116E+03 0.118E+02 0.444E+03   -.116E+03 -.119E+02 -.443E+03   0.160E+00 -.986E-01 -.801E+00   -.273E-03 -.342E-03 0.754E-03
   0.445E+02 -.205E+00 0.436E+03   -.445E+02 0.234E+00 -.438E+03   0.398E+00 0.231E-01 0.728E+00   0.672E-04 -.399E-03 -.189E-03
   -.307E+02 0.184E+02 -.429E+03   0.298E+02 -.197E+02 0.428E+03   0.909E+00 0.137E+01 0.139E+01   0.156E-03 0.296E-03 -.115E-02
   -.363E+02 0.256E+00 0.624E+03   0.366E+02 0.673E-01 -.620E+03   -.143E+00 -.220E+00 -.307E+01   0.125E-02 -.864E-03 0.105E-02
   -.131E+03 -.289E+02 0.126E+03   0.132E+03 0.291E+02 -.126E+03   -.252E+00 -.198E+00 0.524E+00   0.664E-03 0.386E-03 -.771E-03
   0.522E+02 -.612E+01 0.608E+03   -.522E+02 0.537E+01 -.604E+03   -.284E-01 0.273E+00 -.319E+01   0.532E-03 0.229E-03 0.128E-02
   0.565E+02 0.370E+02 0.627E+02   -.561E+02 -.376E+02 -.628E+02   -.388E+00 0.591E+00 0.157E+00   0.591E-04 -.472E-03 -.810E-03
   -.573E+02 0.566E+01 0.415E+03   0.575E+02 -.521E+01 -.415E+03   -.119E+00 0.217E+00 0.205E+00   0.694E-03 -.320E-03 0.252E-03
   -.738E+02 -.750E+02 -.475E+03   0.749E+02 0.754E+02 0.473E+03   -.116E+01 -.341E+00 0.157E+01   -.817E-05 0.162E-03 -.732E-03
   0.435E+02 0.397E+01 0.621E+03   -.428E+02 -.385E+01 -.617E+03   -.836E+00 -.346E+00 -.335E+01   0.145E-03 0.274E-04 0.129E-02
   0.167E+02 -.884E+02 0.120E+03   -.167E+02 0.892E+02 -.121E+03   0.895E-01 -.810E+00 0.356E+00   -.120E-03 0.671E-03 -.945E-03
   -.924E+02 -.109E+02 0.417E+03   0.919E+02 0.105E+02 -.418E+03   0.929E+00 0.217E+00 0.345E+00   0.875E-03 0.550E-03 0.247E-03
   -.150E+03 0.255E+01 -.516E+03   0.148E+03 -.309E+01 0.515E+03   0.230E+01 0.540E+00 0.125E+01   0.409E-03 -.432E-04 -.873E-03
   0.657E+02 0.509E+02 -.402E+03   -.650E+02 -.505E+02 0.403E+03   -.715E+00 -.457E+00 -.748E+00   -.499E-03 -.399E-03 -.626E-03
   0.549E+02 -.145E+01 0.413E+03   -.541E+02 0.138E+01 -.414E+03   -.101E+01 0.292E+00 0.118E+00   0.271E-03 0.456E-03 0.503E-03
   -.141E+03 -.441E+02 0.695E+03   0.140E+03 0.434E+02 -.691E+03   0.809E+00 0.108E+00 -.340E+01   -.941E-03 -.891E-03 0.548E-03
   -.112E+03 -.192E+02 0.179E+03   0.113E+03 0.185E+02 -.179E+03   -.708E+00 0.701E+00 0.164E-01   -.451E-03 0.940E-04 -.104E-02
   -.141E+03 0.116E+02 0.415E+03   0.140E+03 -.111E+02 -.415E+03   0.340E+00 0.717E-01 0.179E+00   0.578E-03 -.840E-03 0.543E-03
   -.164E+03 -.111E+02 -.558E+03   0.163E+03 0.114E+02 0.556E+03   0.113E+01 -.313E+00 0.140E+01   0.355E-03 -.185E-03 -.767E-03
   0.158E+03 -.130E+02 -.922E+03   -.158E+03 0.153E+02 0.931E+03   0.894E+00 -.226E+01 -.871E+01   -.722E-03 -.116E-02 -.626E-03
   -.149E+03 0.215E+02 -.106E+04   0.151E+03 -.242E+02 0.108E+04   -.257E+01 0.267E+01 -.173E+02   0.659E-03 0.988E-04 -.144E-02
   0.193E+03 0.352E+02 -.666E+03   -.193E+03 -.372E+02 0.671E+03   -.981E-02 0.204E+01 -.541E+01   -.153E-02 0.270E-02 -.280E-02
   -.127E+03 0.408E+02 -.797E+03   0.128E+03 -.402E+02 0.804E+03   -.148E+01 -.578E+00 -.733E+01   0.132E-02 0.297E-03 -.159E-02
   0.162E+03 0.246E+02 -.103E+04   -.163E+03 -.288E+02 0.105E+04   0.133E+01 0.420E+01 -.189E+02   -.403E-03 -.139E-02 -.176E-02
   0.145E+03 0.274E+02 -.105E+04   -.142E+03 -.236E+02 0.107E+04   -.243E+01 -.380E+01 -.214E+02   -.633E-03 0.196E-02 -.211E-02
   -.949E+02 -.103E+03 -.120E+04   0.957E+02 0.103E+03 0.122E+04   -.813E+00 0.522E+00 -.207E+02   0.121E-03 -.842E-03 -.155E-02
   0.111E+03 -.142E+02 -.119E+04   -.115E+03 0.176E+02 0.121E+04   0.430E+01 -.349E+01 -.240E+02   0.134E-02 0.140E-02 0.661E-03
   0.405E+02 -.401E+02 -.103E+04   -.380E+02 0.370E+02 0.105E+04   -.253E+01 0.310E+01 -.194E+02   -.161E-02 -.641E-03 -.925E-03
   0.112E+03 0.314E+02 -.111E+04   -.117E+03 -.256E+02 0.113E+04   0.514E+01 -.585E+01 -.164E+02   -.109E-03 0.516E-03 -.160E-02
   0.107E+03 -.287E+01 -.112E+04   -.109E+03 -.703E+01 0.114E+04   0.237E+01 0.990E+01 -.196E+02   0.158E-03 -.775E-03 -.108E-02
   -.211E+03 -.379E+02 -.122E+04   0.210E+03 0.421E+02 0.124E+04   0.923E+00 -.423E+01 -.212E+02   -.570E-03 -.121E-02 -.960E-03
   -.276E+03 -.252E+02 -.995E+03   0.276E+03 0.294E+02 0.101E+04   0.426E+00 -.415E+01 -.105E+02   0.595E-03 0.936E-03 -.108E-02
   0.105E+03 0.402E+02 -.122E+04   -.101E+03 -.388E+02 0.124E+04   -.361E+01 -.141E+01 -.238E+02   0.179E-02 -.853E-03 -.523E-03
   -.109E+03 -.864E+01 -.607E+03   0.112E+03 0.102E+02 0.611E+03   -.253E+01 -.153E+01 -.392E+01   -.957E-03 -.243E-03 0.731E-03
   0.138E+03 -.903E+02 -.233E+03   -.137E+03 0.915E+02 0.232E+03   -.107E+01 -.125E+01 0.853E+00   -.816E-03 0.725E-03 -.791E-03
   -.170E+03 -.109E+02 -.211E+03   0.167E+03 0.110E+02 0.211E+03   0.253E+01 -.160E+00 -.183E+00   0.907E-03 0.231E-03 -.154E-02
   0.926E+02 0.123E+02 0.124E+03   -.925E+02 -.131E+02 -.124E+03   -.169E+00 0.817E+00 -.222E+00   -.166E-02 -.762E-04 -.125E-02
   -.255E+03 -.649E+02 -.850E+02   0.256E+03 0.635E+02 0.874E+02   -.157E+01 0.141E+01 -.239E+01   -.167E-03 0.389E-03 -.524E-03
   0.324E+03 0.638E+02 0.167E+03   -.328E+03 -.657E+02 -.172E+03   0.461E+01 0.191E+01 0.448E+01   -.445E-03 -.272E-02 -.359E-03
   0.187E+03 -.199E+02 -.302E+03   -.189E+03 0.196E+02 0.298E+03   0.179E+01 0.334E+00 0.416E+01   0.113E-03 0.434E-04 -.134E-02
   -.153E+02 0.244E+01 -.158E+03   0.176E+02 -.476E+01 0.160E+03   -.236E+01 0.231E+01 -.139E+01   -.663E-03 -.170E-02 0.807E-03
   0.144E+03 -.934E+02 -.309E+03   -.140E+03 0.982E+02 0.310E+03   -.414E+01 -.479E+01 -.909E+00   -.136E-04 -.272E-02 0.845E-03
   -.138E+03 -.198E+02 0.292E+01   0.135E+03 0.212E+02 -.798E+00   0.237E+01 -.133E+01 -.218E+01   0.172E-02 0.294E-03 -.345E-03
   -.207E+03 0.529E+02 -.268E+03   0.204E+03 -.570E+02 0.264E+03   0.282E+01 0.410E+01 0.405E+01   -.145E-04 0.751E-03 -.129E-02
   -.813E+02 -.395E+02 -.124E+03   0.835E+02 0.438E+02 0.124E+03   -.217E+01 -.437E+01 0.802E-01   -.142E-02 -.900E-03 -.140E-02
 -----------------------------------------------------------------------------------------------
   -.630E+01 0.309E+01 0.251E+03   0.654E-12 -.107E-12 -.409E-11   0.630E+01 -.308E+01 -.251E+03   -.766E-02 -.814E-02 -.425E-01
 
 
 POSITION                                       TOTAL-FORCE (eV/Angst)
 -----------------------------------------------------------------------------------
      8.57631      8.29685     10.39845        -0.029281     -0.155244      0.165538
      8.62701      3.76336     14.86487         0.002306      0.015657      0.009485
      8.22078      6.25604     17.66346         0.011239      0.001950     -0.002271
      8.51616      0.79995     12.43874         0.106028     -0.029165      0.405054
     13.42261      6.08885     15.06567        -0.007275     -0.021053      0.023658
     13.49094      1.15316     10.44749         0.013452     -0.397970     -0.000808
     10.03344      3.28428     12.67411         0.477995      0.119510     -0.797310
     10.13513      8.46414     17.55830        -0.011655      0.026506     -0.015837
      7.12524      5.81577     10.15765        -0.250259     -0.459982      0.877764
      6.93046      1.07645     15.21168         0.004972      0.003348     -0.006598
      8.51222      3.28036     10.20450         0.259532      0.102908      0.739103
      8.40730      8.30392     15.11453         0.007301     -0.004883     -0.000607
     10.22263      8.06723     12.77991        -0.379892      0.434762     -0.704751
     10.44303      4.07542     17.87688         0.010202     -0.007319     -0.000231
      5.42664      8.10481     10.20639         0.305423      0.150443      0.952738
      5.53070      3.29522     14.83544         0.007329      0.001357     -0.000412
      8.52843      5.75423     12.65640         0.219403      0.022320     -0.108652
      8.62185      1.34001     17.72544        -0.008879     -0.041078      0.013621
      3.84829      7.97317     12.47259        -0.448959      0.249532     -0.302272
      3.91673      3.51381     17.15891         0.012399     -0.006205      0.021872
      3.80005      5.54489     14.98737         0.009103     -0.005355      0.002055
      3.90063      0.73891     10.00000         0.457940     -0.163014      0.258573
     10.01963      6.01864     15.42345         0.017040      0.000986     -0.003833
     10.19112      1.10470     10.13736        -0.164198      0.062699      0.386055
      6.82945      7.99424     12.66670         0.039473      0.132806     -0.427610
      6.98137      3.65214     17.32297        -0.004950     -0.005636     -0.004420
     12.00702      6.54939     17.76387        -0.008921      0.021464      0.067448
     11.66772      1.05372     12.57547        -0.381475     -0.296327     -0.429408
     11.73919      3.33868     10.41199        -0.269044     -0.095450      0.642421
     11.58572      8.09078     14.99256         0.008986     -0.006247     -0.004783
      7.18522      3.24644     12.75390        -0.035295      0.448207     -1.268106
      7.19406      8.70995     17.86752         0.004033     -0.001402      0.000185
      6.83794      5.75612     14.88928         0.013158     -0.009749      0.004571
      6.87795      0.97560     10.08695        -0.094919     -0.045037      0.190604
      5.51084      5.55012     12.48419        -0.319716      0.670014     -0.238077
      5.57517      1.16586     17.74880         0.005134     -0.008717      0.004548
      3.51249      3.50019     12.83519        -0.334408     -0.407876     -0.019617
      3.27040      8.90454     17.61297        -0.004992      0.004137      0.010751
      3.46798      5.87237     10.40868         0.045637     -0.294976     -0.172530
      3.48885      1.22920     15.14186         0.010637     -0.003418      0.005200
     11.91771      8.21633     10.24534        -0.209607     -0.020737      0.658899
     11.84807      3.71386     15.37523        -0.001758     -0.018645     -0.015686
      5.24135      3.36543     10.32679         0.102604      0.084760      0.085696
      5.23488      8.26091     15.07715         0.003409      0.000164      0.001149
      5.25999      6.46997     17.92845         0.013152     -0.001499     -0.000561
      5.28930      0.99064     12.60849         0.058866     -0.217406     -0.435288
      1.60538      5.84491     12.85122         0.357450      0.051387     -0.684200
      1.41760      1.65890     17.69088         0.008414     -0.001308     -0.000716
     13.72038      5.67134     10.18293         0.239660      0.103243      0.569090
     13.55148      0.76792     15.23187         0.007365     -0.000977     -0.004903
      1.63456      8.33987     10.36453        -0.076149     -0.481386      0.139164
      1.26042      3.63352     15.30080         0.001849     -0.001547      0.003305
     13.76831      3.16119     12.53308         0.134265      0.661441     -0.106550
      0.51380      8.39672     17.87585         0.006294      0.002303     -0.017681
      1.99440      3.17314     10.17666        -0.140711     -0.226943      0.624401
      2.05799      8.10380     15.11901         0.004376     -0.000660     -0.002190
     13.48051      8.37930     12.86886         0.415648     -0.190277     -0.930849
     13.34461      4.08182     18.18620         0.003847      0.002315     -0.015560
      2.14607      5.95555     17.47540         0.004192     -0.000061      0.002937
      2.02729      0.87737     12.46815        -0.269925      0.229450     -0.155982
     10.07171      5.79402     10.14663         0.180706     -0.596187      0.234139
     10.08184      1.12975     15.03784         0.004641     -0.005149     -0.000682
     11.97051      5.66181     12.67660        -0.515769      0.507684     -0.291096
     12.06097      1.25340     18.04720         0.002934      0.005632      0.001848
      5.16965      8.63588     18.23253         0.017815     -0.004518      0.015660
     13.66704      2.19449     19.08333         0.016556      0.035299     -0.002525
      3.53430      1.42177     17.55919         0.017673      0.005224      0.009532
      0.16311      6.20193     18.15848        -0.024442      0.026215     -0.059413
      3.80162      5.14555     18.50923         0.019041      0.004146      0.013228
      5.45640      3.02628     18.38623         0.020616      0.000920      0.010481
     10.19720      0.60843     18.77938         0.009807      0.014380      0.008472
      7.14607      0.79371     18.93688        -0.001161      0.000241      0.020989
      2.32357      7.68189     18.78327        -0.012050      0.011430     -0.006463
      8.66956      3.28927     18.44876         0.029225     -0.001076      0.005893
      6.91107      5.43125     18.53247         0.029153     -0.006842      0.000333
     11.69817      5.09290     19.06473         0.006717     -0.044730      0.024685
     12.18558      8.42205     18.41749         0.026925      0.061560      0.048145
      8.57925      7.70145     18.71215         0.026753     -0.013275      0.014962
     10.04778      6.14460     17.51579         0.020677      0.002328     -0.004027
      3.76292      7.10317     16.41122         0.013230      0.004043      0.001478
     13.46324      2.57992     16.51756         0.014568     -0.006161      0.000424
      1.68168      5.90327     15.20668         0.009888      0.005325      0.001792
     11.62734      0.12537     16.20002         0.005810      0.005269      0.021968
      3.39421      3.48673     14.99541         0.012087      0.002566      0.008651
      6.86016      7.21178     16.47854         0.015764     -0.004635      0.003868
      8.24069      5.02529     16.27244         0.018988     -0.001654     -0.011219
      5.36754      4.93562     16.34021         0.010092     -0.002723      0.001884
     13.66516      8.03083     15.69834         0.028804      0.033327     -0.057480
     10.71641      2.36574     16.79337         0.021669     -0.005666     -0.004173
      8.39088      2.36050     16.00680         0.015440     -0.009094      0.001060
 -----------------------------------------------------------------------------------
    total drift:                               -0.006990      0.000776      0.000179


--------------------------------------------------------------------------------------------------------



  FREE ENERGIE OF THE ION-ELECTRON SYSTEM (eV)
  ---------------------------------------------------
  free  energy   TOTEN  =      -757.47304395 eV

  energy  without entropy=     -757.47055519  energy(sigma->0) =     -757.47242176
 


--------------------------------------------------------------------------------------------------------


    POTLOK:  cpu time    0.1122: real time    0.1125


--------------------------------------------------------------------------------------------------------


     LOOP+:  cpu time  947.1843: real time  947.4444
    4ORBIT:  cpu time    0.0000: real time    0.0000

 total amount of memory used by VASP on root node   143242. kBytes
========================================================================

   base      :      30000. kBytes
   nonl-proj :      29226. kBytes
   fftplans  :       6516. kBytes
   grid      :      15878. kBytes
   one-center:         62. kBytes
   wavefun   :      61560. kBytes
 
  
  
 General timing and accounting informations for this job:
 ========================================================
  
                  Total CPU time used (sec):      966.686
                            User time (sec):      962.984
                          System time (sec):        3.702
                         Elapsed time (sec):      966.988
  
                   Maximum memory used (kb):      180240.
                   Average memory used (kb):           0.
  
                          Minor page faults:        54292
                          Major page faults:            0
                 Voluntary context switches:         2474
