 vasp.5.4.1 05Feb16 (build Mar 19 2020 08:54:17) complex                        
  
 executed on           IFC91_ompi date 2021.11.07  09:19:40
 running on   48 total cores
 distrk:  each k-point on   48 cores,    1 groups
 distr:  one band on NCORES_PER_BAND=  24 cores,    2 groups


--------------------------------------------------------------------------------------------------------


 INCAR:
 POTCAR:    PAW_PBE Al 04Jan2001                  
 POTCAR:    PAW_PBE Nb_sv 25May2007               
 POTCAR:    PAW_PBE Ta 17Jan2003                  
 POTCAR:    PAW_PBE Ti 08Apr2002                  
 POTCAR:   PAW_PBE Zr 08Apr2002                   
 POTCAR:    PAW_PBE O 08Apr2002                   

 ----------------------------------------------------------------------------- 
|                                                                             |
|           W    W    AA    RRRRR   N    N  II  N    N   GGGG   !!!           |
|           W    W   A  A   R    R  NN   N  II  NN   N  G    G  !!!           |
|           W    W  A    A  R    R  N N  N  II  N N  N  G       !!!           |
|           W WW W  AAAAAA  RRRRR   N  N N  II  N  N N  G  GGG   !            |
|           WW  WW  A    A  R   R   N   NN  II  N   NN  G    G                |
|           W    W  A    A  R    R  N    N  II  N    N   GGGG   !!!           |
|                                                                             |
|      For optimal performance we recommend to set                            |
|        NCORE= 4 - approx SQRT( number of cores)                             |
|      NCORE specifies how many cores store one orbital (NPAR=cpu/NCORE).     |
|      This setting can  greatly improve the performance of VASP for DFT.     |
|      The default, NPAR=number of cores might be grossly inefficient         |
|      on modern multi-core architectures or massively parallel machines.     |
|      Do your own testing !!!!                                               |
|      Unfortunately you need to use the default for GW and RPA calculations. |
|      (for HF NCORE is supported but not extensively tested yet)             |
|                                                                             |
 ----------------------------------------------------------------------------- 

 POTCAR:    PAW_PBE Al 04Jan2001                  
   VRHFIN =Al: s2p1                                                             
   LEXCH  = PE                                                                  
   EATOM  =    53.5387 eV,    3.9350 Ry                                         
                                                                                
   TITEL  = PAW_PBE Al 04Jan2001                                                
   LULTRA =        F    use ultrasoft PP ?                                      
   IUNSCR =        1    unscreen: 0-lin 1-nonlin 2-no                           
   RPACOR =    1.500    partial core radius                                     
   POMASS =   26.981; ZVAL   =    3.000    mass and valenz                      
   RCORE  =    1.900    outmost cutoff radius                                   
   RWIGS  =    2.650; RWIGS  =    1.402    wigner-seitz radius (au A)           
   ENMAX  =  240.300; ENMIN  =  180.225 eV                                      
   ICORE  =        2    local potential                                         
   LCOR   =        T    correct aug charges                                     
   LPAW   =        T    paw PP                                                  
   EAUG   =  291.052                                                            
   DEXC   =    0.000                                                            
   RMAX   =    1.939    core radius for proj-oper                               
   RAUG   =    1.300    factor for augmentation sphere                          
   RDEP   =    1.966    radius for radial grids                                 
   RDEPT  =    1.856    core radius for aug-charge                              
                                                                                
   Atomic configuration                                                         
    6 entries                                                                   
     n  l   j            E        occ.                                          
     1  0  0.50     -1511.1048   2.0000                                         
     2  0  0.50      -108.1629   2.0000                                         
     2  1  1.50       -69.6402   6.0000                                         
     3  0  0.50        -7.7528   2.0000                                         
     3  1  1.50        -2.7121   1.0000                                         
     3  2  2.50        -2.7212   0.0000                                         
   Description                                                                  
     l       E           TYP  RCUT    TYP  RCUT                                 
     0     -7.7528455     23  1.900                                             
     0     -3.3096929     23  1.900                                             
     1     -2.7120682     23  1.900                                             
     1     13.6058260     23  1.900                                             
     2     -2.7211652      7  1.900                                             
  local pseudopotential read in
  partial core-charges read in
  partial kinetic energy density read in
  atomic valenz-charges read in
  non local Contribution for L=           0  read in
    real space projection operators read in
  non local Contribution for L=           0  read in
    real space projection operators read in
  non local Contribution for L=           1  read in
    real space projection operators read in
  non local Contribution for L=           1  read in
    real space projection operators read in
    PAW grid and wavefunctions read in
 
   number of l-projection  operators is LMAX  =           4
   number of lm-projection operators is LMMAX =           8
 
 POTCAR:    PAW_PBE Nb_sv 25May2007               
   VRHFIN =Nb: 4p5s4d                                                           
   LEXCH  = PE                                                                  
   EATOM  =  1555.1913 eV,  114.3033 Ry                                         
                                                                                
   TITEL  = PAW_PBE Nb_sv 25May2007                                             
   LULTRA =        F    use ultrasoft PP ?                                      
   IUNSCR =        1    unscreen: 0-lin 1-nonlin 2-no                           
   RPACOR =    1.800    partial core radius                                     
   POMASS =   92.910; ZVAL   =   13.000    mass and valenz                      
   RCORE  =    2.400    outmost cutoff radius                                   
   RWIGS  =    2.400; RWIGS  =    1.270    wigner-seitz radius (au A)           
   ENMAX  =  293.235; ENMIN  =  219.927 eV                                      
   ICORE  =        3    local potential                                         
   LCOR   =        T    correct aug charges                                     
   LPAW   =        T    paw PP                                                  
   EAUG   =  455.659                                                            
   DEXC   =    0.000                                                            
   RMAX   =    2.456    core radius for proj-oper                               
   RAUG   =    1.300    factor for augmentation sphere                          
   RDEP   =    2.451    radius for radial grids                                 
   RDEPT  =    1.956    core radius for aug-charge                              
                                                                                
   Atomic configuration                                                         
   11 entries                                                                   
     n  l   j            E        occ.                                          
     1  0  0.50    -18805.2457   2.0000                                         
     2  0  0.50     -2630.2869   2.0000                                         
     2  1  1.50     -2348.4046   6.0000                                         
     3  0  0.50      -438.8757   2.0000                                         
     3  1  1.50      -346.7588   6.0000                                         
     3  2  2.50      -196.2560  10.0000                                         
     4  0  0.50       -58.3859   2.0000                                         
     5  0  0.50        -3.9816   1.0000                                         
     4  1  1.50       -34.5141   6.0000                                         
     4  2  2.50        -3.0408   4.0000                                         
     4  3  2.50        -1.3606   0.0000                                         
   Description                                                                  
     l       E           TYP  RCUT    TYP  RCUT                                 
     0    -58.3859094     23  2.200                                             
     0     -3.9816262     23  2.200                                             
     1    -34.5140738     23  2.200                                             
     1     13.6058260     23  2.200                                             
     2     -3.0408010     23  2.200                                             
     2     -0.1283038     23  2.200                                             
     3     -1.3605826     23  2.400                                             
  local pseudopotential read in
  partial core-charges read in
  partial kinetic energy density read in
  atomic valenz-charges read in
  non local Contribution for L=           0  read in
    real space projection operators read in
  non local Contribution for L=           0  read in
    real space projection operators read in
  non local Contribution for L=           1  read in
    real space projection operators read in
  non local Contribution for L=           1  read in
    real space projection operators read in
  non local Contribution for L=           2  read in
    real space projection operators read in
  non local Contribution for L=           2  read in
    real space projection operators read in
    PAW grid and wavefunctions read in
 
   number of l-projection  operators is LMAX  =           6
   number of lm-projection operators is LMMAX =          18
 
 POTCAR:    PAW_PBE Ta 17Jan2003                  
   VRHFIN =Ta:  6s5d                                                            
   LEXCH  = PE                                                                  
   EATOM  =   130.6506 eV,    9.6025 Ry                                         
                                                                                
   TITEL  = PAW_PBE Ta 17Jan2003                                                
   LULTRA =        F    use ultrasoft PP ?                                      
   IUNSCR =        1    unscreen: 0-lin 1-nonlin 2-no                           
   RPACOR =    2.330    partial core radius                                     
   POMASS =  180.948; ZVAL   =    5.000    mass and valenz                      
   RCORE  =    2.900    outmost cutoff radius                                   
   RWIGS  =    2.840; RWIGS  =    1.503    wigner-seitz radius (au A)           
   ENMAX  =  223.667; ENMIN  =  167.750 eV                                      
   RCLOC  =    2.205    cutoff for local pot                                    
   LCOR   =        T    correct aug charges                                     
   LPAW   =        T    paw PP                                                  
   EAUG   =  332.075                                                            
   DEXC   =    0.000                                                            
   RMAX   =    2.970    core radius for proj-oper                               
   RAUG   =    1.300    factor for augmentation sphere                          
   RDEP   =    3.060    radius for radial grids                                 
   RDEPT  =    2.354    core radius for aug-charge                              
                                                                                
   Atomic configuration                                                         
   16 entries                                                                   
     n  l   j            E        occ.                                          
     1  0  0.50    -67341.2807   2.0000                                         
     2  0  0.50    -11566.9376   2.0000                                         
     2  1  1.50    -10134.1182   6.0000                                         
     3  0  0.50     -2648.5620   2.0000                                         
     3  1  1.50     -2222.6012   6.0000                                         
     3  2  2.50     -1726.3120  10.0000                                         
     4  0  0.50      -538.6961   2.0000                                         
     4  1  1.50      -399.0129   6.0000                                         
     4  2  2.50      -220.3959  10.0000                                         
     4  3  3.50       -23.0374  14.0000                                         
     5  0  0.50       -71.2901   2.0000                                         
     5  1  1.50       -37.8225   6.0000                                         
     5  2  2.50        -2.6455   4.0000                                         
     6  0  0.50        -4.9623   1.0000                                         
     6  1  1.50        -1.3606   0.0000                                         
     5  3  2.50        -1.3606   0.0000                                         
   Description                                                                  
     l       E           TYP  RCUT    TYP  RCUT                                 
     2     -2.6455043     23  2.500                                             
     2     -0.6258895     23  2.500                                             
     0     -4.9622780     23  2.500                                             
     0      4.7531321     23  2.500                                             
     1     -1.3605826     23  2.900                                             
     1     27.2116520     23  2.900                                             
  local pseudopotential read in
  partial core-charges read in
  partial kinetic energy density read in
  atomic valenz-charges read in
  non local Contribution for L=           2  read in
    real space projection operators read in
  non local Contribution for L=           2  read in
    real space projection operators read in
  non local Contribution for L=           0  read in
    real space projection operators read in
  non local Contribution for L=           0  read in
    real space projection operators read in
  non local Contribution for L=           1  read in
    real space projection operators read in
  non local Contribution for L=           1  read in
    real space projection operators read in
    PAW grid and wavefunctions read in
 
   number of l-projection  operators is LMAX  =           6
   number of lm-projection operators is LMMAX =          18
 
 POTCAR:    PAW_PBE Ti 08Apr2002                  
   VRHFIN =Ti: d3 s1                                                            
   LEXCH  = PE                                                                  
   EATOM  =    94.7928 eV,    6.9671 Ry                                         
                                                                                
   TITEL  = PAW_PBE Ti 08Apr2002                                                
   LULTRA =        F    use ultrasoft PP ?                                      
   IUNSCR =        1    unscreen: 0-lin 1-nonlin 2-no                           
   RPACOR =    2.200    partial core radius                                     
   POMASS =   47.880; ZVAL   =    4.000    mass and valenz                      
   RCORE  =    2.800    outmost cutoff radius                                   
   RWIGS  =    2.500; RWIGS  =    1.323    wigner-seitz radius (au A)           
   ENMAX  =  178.330; ENMIN  =  133.747 eV                                      
   RCLOC  =    2.215    cutoff for local pot                                    
   LCOR   =        T    correct aug charges                                     
   LPAW   =        T    paw PP                                                  
   EAUG   =  328.883                                                            
   DEXC   =    0.000                                                            
   RMAX   =    2.868    core radius for proj-oper                               
   RAUG   =    1.300    factor for augmentation sphere                          
   RDEP   =    2.885    radius for radial grids                                 
   RDEPT  =    2.320    core radius for aug-charge                              
                                                                                
   Atomic configuration                                                         
    9 entries                                                                   
     n  l   j            E        occ.                                          
     1  0  0.50     -4865.3608   2.0000                                         
     2  0  0.50      -533.1367   2.0000                                         
     2  1  1.50      -440.5031   6.0000                                         
     3  0  0.50       -59.3186   2.0000                                         
     3  1  1.50       -35.7012   6.0000                                         
     3  2  2.50        -1.9157   3.0000                                         
     4  0  0.50        -3.7291   1.0000                                         
     4  1  1.50        -4.0817   0.0000                                         
     4  3  2.50        -1.3606   0.0000                                         
   Description                                                                  
     l       E           TYP  RCUT    TYP  RCUT                                 
     2     -1.9156924     23  2.800                                             
     2     -0.4062961     23  2.800                                             
     0     -3.7290832     23  2.800                                             
     0     20.4087390     23  2.800                                             
     1     -5.4423304     23  2.800                                             
  local pseudopotential read in
  partial core-charges read in
  partial kinetic energy density read in
  atomic valenz-charges read in
  non local Contribution for L=           2  read in
    real space projection operators read in
  non local Contribution for L=           2  read in
    real space projection operators read in
  non local Contribution for L=           0  read in
    real space projection operators read in
  non local Contribution for L=           0  read in
    real space projection operators read in
  non local Contribution for L=           1  read in
    real space projection operators read in
    PAW grid and wavefunctions read in
 
   number of l-projection  operators is LMAX  =           5
   number of lm-projection operators is LMMAX =          15
 
 POTCAR:   PAW_PBE Zr 08Apr2002                   
   VRHFIN =Zr: 5s4d5p                                                           
   LEXCH  = PE                                                                  
   EATOM  =    77.8472 eV,    5.7216 Ry                                         
                                                                                
   TITEL  = PAW_PBE Zr 08Apr2002                                                
   LULTRA =        F    use ultrasoft PP ?                                      
   IUNSCR =        1    unscreen: 0-lin 1-nonlin 2-no                           
   RPACOR =    2.200    partial core radius                                     
   POMASS =   91.224; ZVAL   =    4.000    mass and valenz                      
   RCORE  =    3.000    outmost cutoff radius                                   
   RWIGS  =    3.070; RWIGS  =    1.625    wigner-seitz radius (au A)           
   ENMAX  =  154.632; ENMIN  =  115.974 eV                                      
   RCLOC  =    2.213    cutoff for local pot                                    
   LCOR   =        T    correct aug charges                                     
   LPAW   =        T    paw PP                                                  
   EAUG   =  243.217                                                            
   DEXC   =    -.082                                                            
   RMAX   =    3.708    core radius for proj-oper                               
   RAUG   =    1.300    factor for augmentation sphere                          
   RDEP   =    3.146    radius for radial grids                                 
   QCUT   =   -3.371; QGAM   =    6.742    optimization parameters              
                                                                                
   Description                                                                  
     l     E      TYP  RCUT    TYP  RCUT                                        
     2   .000     23  3.000                                                     
     2   .000     23  3.000                                                     
     0   .000     23  3.000                                                     
     0  2.000     23  3.000                                                     
     1  -.400     23  3.000                                                     
     3   .000      7   .000                                                     
  local pseudopotential read in
  partial core-charges read in
  atomic valenz-charges read in
  non local Contribution for L=           2  read in
    real space projection operators read in
  non local Contribution for L=           2  read in
    real space projection operators read in
  non local Contribution for L=           0  read in
    real space projection operators read in
  non local Contribution for L=           0  read in
    real space projection operators read in
  non local Contribution for L=           1  read in
    real space projection operators read in
    PAW grid and wavefunctions read in
 
   number of l-projection  operators is LMAX  =           5
   number of lm-projection operators is LMMAX =          15
 
 POTCAR:    PAW_PBE O 08Apr2002                   
   VRHFIN =O: s2p4                                                              
   LEXCH  = PE                                                                  
   EATOM  =   432.3788 eV,   31.7789 Ry                                         
                                                                                
   TITEL  = PAW_PBE O 08Apr2002                                                 
   LULTRA =        F    use ultrasoft PP ?                                      
   IUNSCR =        1    unscreen: 0-lin 1-nonlin 2-no                           
   RPACOR =    1.200    partial core radius                                     
   POMASS =   16.000; ZVAL   =    6.000    mass and valenz                      
   RCORE  =    1.520    outmost cutoff radius                                   
   RWIGS  =    1.550; RWIGS  =    0.820    wigner-seitz radius (au A)           
   ENMAX  =  400.000; ENMIN  =  300.000 eV                                      
   ICORE  =        2    local potential                                         
   LCOR   =        T    correct aug charges                                     
   LPAW   =        T    paw PP                                                  
   EAUG   =  605.392                                                            
   DEXC   =    0.000                                                            
   RMAX   =    1.553    core radius for proj-oper                               
   RAUG   =    1.300    factor for augmentation sphere                          
   RDEP   =    1.550    radius for radial grids                                 
   RDEPT  =    1.329    core radius for aug-charge                              
                                                                                
   Atomic configuration                                                         
    4 entries                                                                   
     n  l   j            E        occ.                                          
     1  0  0.50      -514.6923   2.0000                                         
     2  0  0.50       -23.9615   2.0000                                         
     2  1  0.50        -9.0305   4.0000                                         
     3  2  1.50        -9.5241   0.0000                                         
   Description                                                                  
     l       E           TYP  RCUT    TYP  RCUT                                 
     0    -23.9615318     23  1.200                                             
     0     -9.5240782     23  1.200                                             
     1     -9.0304911     23  1.520                                             
     1      8.1634956     23  1.520                                             
     2     -9.5240782      7  1.500                                             
  local pseudopotential read in
  partial core-charges read in
  partial kinetic energy density read in
  kinetic energy density of atom read in
  atomic valenz-charges read in
  non local Contribution for L=           0  read in
    real space projection operators read in
  non local Contribution for L=           0  read in
    real space projection operators read in
  non local Contribution for L=           1  read in
    real space projection operators read in
  non local Contribution for L=           1  read in
    real space projection operators read in
    PAW grid and wavefunctions read in
 
   number of l-projection  operators is LMAX  =           4
   number of lm-projection operators is LMMAX =           8
 

 ----------------------------------------------------------------------------- 
|                                                                             |
|  ADVICE TO THIS USER RUNNING 'VASP/VAMP'   (HEAR YOUR MASTER'S VOICE ...):  |
|                                                                             |
|      You have a (more or less) 'large supercell' and for larger cells       |
|      it might be more efficient to use real space projection opertators     |
|      So try LREAL= Auto  in the INCAR   file.                               |
|      Mind: At the moment your POTCAR file does not contain real space       |
|       projectors, and has to be modified,  BUT if you                       |
|      want to do an extremely  accurate calculation you might also keep the  |
|      reciprocal projection scheme          (i.e. LREAL=.FALSE.)             |
|                                                                             |
 ----------------------------------------------------------------------------- 

 WARNING: PSMAXN for non-local potential too small
          PSMAXN should be >   12.5490833729506       NTYP=           5
  PAW_PBE Al 04Jan2001                  :
 energy of atom  1       EATOM=  -53.5387
 kinetic energy error for atom=    0.0002 (will be added to EATOM!!)
  PAW_PBE Nb_sv 25May2007               :
 energy of atom  2       EATOM=-1555.1913
 kinetic energy error for atom=    0.0037 (will be added to EATOM!!)
  PAW_PBE Ta 17Jan2003                  :
 energy of atom  3       EATOM= -130.6506
 kinetic energy error for atom=    0.0004 (will be added to EATOM!!)
  PAW_PBE Ti 08Apr2002                  :
 energy of atom  4       EATOM=  -94.7928
 kinetic energy error for atom=    0.0001 (will be added to EATOM!!)
 PAW_PBE Zr 08Apr2002                   :
 energy of atom  5       EATOM=  -77.8472
 kinetic energy error for atom=    0.0001 (will be added to EATOM!!)
  PAW_PBE O 08Apr2002                   :
 energy of atom  6       EATOM= -432.3788
 kinetic energy error for atom=    0.0168 (will be added to EATOM!!)
 
 
 POSCAR: Al Nb Ta Ti Zr                          
  positions in direct lattice
  velocities in cartesian coordinates
 exchange correlation table for  LEXCH =        8
   RHO(1)=    0.500       N(1)  =     2000
   RHO(2)=  100.500       N(2)  =     4000
 


--------------------------------------------------------------------------------------------------------


 ion  position               nearest neighbor table
   1  0.623  0.867  0.376-  34 2.83  25 2.88  24 2.88   9 2.88  13 2.90   4 2.91  61 2.93  15 3.16
                            41 3.35  17 3.40
   2  0.618  0.397  0.547-  33 2.71  31 2.78  23 2.78  62 2.89  16 2.91   7 2.94  14 2.97  10 3.01
                            26 3.04  17 3.15   3 3.17  42 3.40
   3  0.591  0.636  0.625-  79 1.81  75 1.81  78 1.90  85 1.97   8 2.77  32 2.78  33 2.85  26 2.89
                            23 2.92  45 3.02  14 3.11  12 3.14   2 3.17
   4  0.618  0.084  0.450-  31 2.80  24 2.86  34 2.87  13 2.88   1 2.91  25 2.92   7 2.92  62 2.94
                            28 3.16  10 3.18  46 3.24
   5  0.967  0.641  0.546-  82 2.15  27 2.70  30 2.75  63 2.81  42 2.99  52 3.01  47 3.06  56 3.07
                            23 3.17  57 3.17  59 3.35  54 3.54
   6  0.980  0.121  0.378-  29 2.80  28 2.80  53 2.91  41 2.96  51 3.05  55 3.05  60 3.08  57 3.37

   7  0.729  0.343  0.458-  28 2.77  29 2.83  31 2.85  17 2.89  11 2.90   4 2.92   2 2.94  63 3.07
                            62 3.08  42 3.17
   8  0.724  0.852  0.634-  78 2.03  71 2.05  77 2.06  79 2.14  27 2.74   3 2.77  12 2.86  32 2.92
                            30 2.93  18 2.93  64 3.20
   9  0.517  0.608  0.367-  35 2.84  15 2.85  17 2.87   1 2.88  11 2.89  61 2.95  43 3.10
  10  0.507  0.126  0.549-  16 2.68  12 2.87  36 2.88  62 2.91  18 2.94   2 3.01  44 3.06  46 3.10
                             4 3.18  40 3.47
  11  0.618  0.343  0.369-  24 2.75  34 2.83  31 2.87   9 2.89   7 2.90  61 2.96  43 3.27
  12  0.615  0.870  0.546-  85 2.33  23 2.83   8 2.86  10 2.87  62 2.87  13 2.93  33 2.94  25 2.97
                            32 3.08   3 3.14  44 3.29
  13  0.742  0.843  0.462-  17 2.87   4 2.88   1 2.90  30 2.92  12 2.93  28 2.94  63 2.98  41 3.05
                            57 3.27
  14  0.742  0.396  0.635-  74 2.01  76 2.02  79 2.26  42 2.87   2 2.97  27 3.01  18 3.01  64 3.04
                            58 3.10   3 3.11
  15  0.394  0.847  0.369-  22 2.68  19 2.76  25 2.83  34 2.84   9 2.85  39 2.98   1 3.16  46 3.43

  16  0.407  0.367  0.545-  84 2.13  10 2.68  33 2.71  21 2.75  26 2.80  31 2.83  20 2.89   2 2.91
                            40 3.04  37 3.07
  17  0.619  0.602  0.458-  33 2.71  25 2.81  31 2.85   9 2.87  13 2.87   7 2.89  61 2.95  23 3.01
                            35 3.03   2 3.15   1 3.40  63 3.44
  18  0.629  0.126  0.636-  74 2.05  71 2.07  72 2.07  32 2.69  62 2.88   8 2.93  10 2.94  26 3.01
                            14 3.01  64 3.15  36 3.21
  19  0.279  0.834  0.451-  15 2.76  35 2.94  46 2.96  39 2.97  25 2.99  44 2.99  60 3.07  51 3.08
                            47 3.12  56 3.30
  20  0.270  0.364  0.625-  69 2.03  70 2.06  67 2.21  84 2.31  16 2.89  36 2.98  59 3.04  40 3.06
                            45 3.07  26 3.08  48 3.09  52 3.11  21 3.12
  21  0.275  0.582  0.541-  84 2.07  80 2.12  82 2.13  16 2.75  45 2.91  37 2.97  35 3.02  47 3.04
                            52 3.07  44 3.07  33 3.08  59 3.11  20 3.12  56 3.19
  22  0.283  0.077  0.361-  15 2.68  46 2.97  43 2.97  34 2.99  51 3.02  55 3.10  60 3.10
  23  0.737  0.631  0.548-  79 2.17   2 2.78  12 2.83  30 2.84  27 2.89   3 2.92  17 3.01  42 3.08
                            63 3.11   5 3.17
  24  0.740  0.115  0.366-  29 2.73  11 2.75  28 2.85   4 2.86   1 2.88  41 3.00
  25  0.496  0.836  0.458-  35 2.78  17 2.81  15 2.83   1 2.88   4 2.92  33 2.96  12 2.97  44 2.98
                            19 2.99  46 2.99
  26  0.493  0.372  0.637-  70 1.90  75 1.92  74 1.94  16 2.80  36 2.81   3 2.89  18 3.01   2 3.04
                            20 3.08  45 3.14
  27  0.868  0.653  0.630-  79 2.02  76 2.04  68 2.07  77 2.14   5 2.70  58 2.71   8 2.74  23 2.89
                            54 2.99  14 3.01  30 3.07  42 3.51
  28  0.847  0.110  0.455-   7 2.77   6 2.80  24 2.85  57 2.90  13 2.94  53 2.98  62 3.01  29 3.15
                             4 3.16  50 3.20  41 3.36
  29  0.852  0.349  0.376-  24 2.73   6 2.80   7 2.83  53 2.94  61 2.98  49 3.07  28 3.15  63 3.25

  30  0.854  0.877  0.551-  83 2.12  77 2.27   5 2.75  23 2.84  13 2.92  57 2.93   8 2.93  50 3.05
                            27 3.07  62 3.09  64 3.45  54 3.48
  31  0.522  0.339  0.461-   2 2.78   4 2.80  16 2.83  17 2.85   7 2.85  35 2.86  11 2.87  46 2.95
                            43 3.11
  32  0.516  0.899  0.645-  78 1.88  72 1.93  65 2.01  85 2.04  36 2.64  18 2.69   3 2.78   8 2.92
                            12 3.08  45 3.12  44 3.34
  33  0.497  0.618  0.534-  85 2.07  35 2.67  17 2.71  16 2.71   2 2.71   3 2.85  44 2.93  12 2.94
                            25 2.96  21 3.08  45 3.20
  34  0.499  0.102  0.365-  11 2.83   1 2.83  15 2.84   4 2.87  43 2.91  46 2.98  22 2.99
  35  0.400  0.580  0.451-  33 2.67  25 2.78   9 2.84  31 2.86  37 2.88  39 2.93  19 2.94  21 3.02
                            17 3.03  43 3.08
  36  0.396  0.113  0.637-  72 2.00  70 2.03  67 2.03  65 2.11  32 2.64  26 2.81  10 2.88  38 2.93
                            20 2.98  40 3.17  18 3.21  44 3.44
  37  0.255  0.366  0.464-  84 2.15  35 2.88  21 2.97  47 3.02  60 3.04  43 3.05  16 3.07  55 3.08
                            46 3.08  40 3.17  52 3.27  39 3.39
  38  0.228  0.923  0.636-  73 1.91  65 1.99  67 2.06  80 2.12  56 2.87  54 2.87  36 2.93  48 2.95
                            59 3.13  40 3.21  44 3.23  45 3.29
  39  0.252  0.614  0.376-  35 2.93  19 2.97  15 2.98  47 3.07  43 3.07  51 3.07  55 3.08  37 3.39
                            49 3.53
  40  0.255  0.137  0.547-  84 2.21  67 2.40  16 3.04  20 3.06  44 3.07  60 3.08  46 3.10  37 3.17
                            36 3.17  56 3.20  38 3.21  52 3.24  48 3.34  50 3.44  10 3.47
  41  0.865  0.859  0.370-   6 2.96  24 3.00  61 3.05  13 3.05  57 3.06  49 3.12   1 3.35  28 3.36
                            51 3.49  63 3.53
  42  0.863  0.366  0.551-  81 2.25  83 2.62  14 2.87   5 2.99  62 3.01  23 3.08   7 3.17  50 3.20
                            58 3.22  52 3.24  53 3.31  63 3.35  64 3.39   2 3.40  27 3.51
  43  0.381  0.352  0.373-  34 2.91  22 2.97  37 3.05  39 3.07  35 3.08   9 3.10  31 3.11  55 3.26
                            11 3.27  46 3.29
  44  0.376  0.868  0.547-  85 2.32  80 2.33  65 2.74  33 2.93  25 2.98  19 2.99  10 3.06  40 3.07
                            21 3.07  45 3.12  38 3.23  12 3.29  56 3.31  32 3.34  46 3.39  36 3.44
  45  0.372  0.649  0.631-  69 2.08  75 2.10  80 2.18  85 2.27  65 2.40  21 2.91   3 3.02  20 3.07
                            44 3.12  32 3.12  26 3.14  59 3.19  33 3.20  38 3.29
  46  0.384  0.104  0.456-  31 2.95  19 2.96  22 2.97  34 2.98  25 2.99  37 3.08  10 3.10  40 3.10
                             4 3.24  60 3.27  43 3.29  44 3.39  15 3.43
  47  0.117  0.611  0.465-  82 2.28  37 3.02  21 3.04   5 3.06  39 3.07  19 3.12  53 3.14  49 3.15
                            57 3.17  56 3.22  52 3.24  63 3.42  51 3.52  55 3.80
  48  0.096  0.166  0.638-  66 2.13  67 2.14  81 2.20  38 2.95  54 3.04  58 3.05  50 3.05  20 3.09
                            52 3.18  64 3.31  40 3.34
  49  0.996  0.593  0.368-  63 3.05  29 3.07  41 3.12  47 3.15  51 3.16  55 3.23  53 3.44  39 3.53
                            61 3.65  57 3.82
  50  0.007  0.105  0.539-  83 2.12  81 2.23  57 3.01  52 3.02  56 3.03  48 3.05  30 3.05  60 3.11
                            42 3.20  28 3.20  53 3.21  40 3.44  64 3.51  54 3.70
  51  0.119  0.872  0.375-  60 3.00  22 3.02   6 3.05  39 3.07  19 3.08  57 3.16  49 3.16  41 3.49
                            47 3.52
  52  0.098  0.389  0.552-  81 2.14  84 2.16  82 2.20   5 3.01  50 3.02  21 3.07  20 3.11  53 3.11
                            59 3.15  48 3.18  47 3.24  42 3.24  40 3.24  37 3.27  58 3.39
  53  1.000  0.331  0.453-   6 2.91  29 2.94  28 2.98  60 3.06  63 3.08  55 3.09  52 3.11  47 3.14
                            50 3.21  42 3.31  49 3.44
  54  0.025  0.865  0.643-  77 2.12  73 2.13  68 2.27  59 2.86  38 2.87  27 2.99  48 3.04  56 3.10
                            64 3.39  30 3.48   5 3.54  50 3.70
  55  0.145  0.332  0.368-   6 3.05  37 3.08  39 3.08  53 3.09  22 3.10  49 3.23  60 3.24  43 3.26
                            47 3.80
  56  0.136  0.850  0.546-  82 2.24  80 2.26  38 2.87  50 3.03   5 3.07  54 3.10  57 3.13  59 3.19
                            21 3.19  40 3.20  47 3.22  19 3.30  44 3.31  60 3.52
  57  0.979  0.876  0.465-  28 2.90  30 2.93  50 3.01  41 3.06  63 3.11  60 3.13  56 3.13  51 3.16
                            47 3.17   5 3.17  13 3.27   6 3.37  49 3.82
  58  0.963  0.416  0.655-  76 2.06  66 2.10  68 2.21  81 2.21  27 2.71  48 3.05  14 3.10  64 3.16
                            59 3.22  42 3.22  52 3.39
  59  0.141  0.622  0.630-  69 2.17  68 2.17  73 2.19  80 2.29  82 2.32  54 2.86  20 3.04  21 3.11
                            38 3.13  52 3.15  56 3.19  45 3.19  58 3.22   5 3.35
  60  0.147  0.092  0.451-  51 3.00  37 3.04  53 3.06  19 3.07   6 3.08  40 3.08  22 3.10  50 3.11
                            57 3.13  55 3.24  46 3.27  56 3.52
  61  0.731  0.606  0.367-   1 2.93  17 2.95   9 2.95  11 2.96  29 2.98  41 3.05  63 3.17  49 3.65

  62  0.718  0.132  0.542-  83 2.12  12 2.87  18 2.88   2 2.89  10 2.91   4 2.94  28 3.01  42 3.01
                             7 3.08  30 3.09  64 3.34
  63  0.869  0.592  0.458-   5 2.81  13 2.98  49 3.05   7 3.07  53 3.08  23 3.11  57 3.11  61 3.17
                            29 3.25  42 3.35  47 3.42  17 3.44  41 3.53
  64  0.857  0.126  0.641-  71 2.11  83 2.13  66 2.17  77 2.41  81 2.69  14 3.04  18 3.15  58 3.16
                             8 3.20  48 3.31  62 3.34  42 3.39  54 3.39  30 3.45  50 3.51
  65  0.370  0.896  0.646-  38 1.99  32 2.01  36 2.11  45 2.40  44 2.74
  66  0.976  0.213  0.683-  58 2.10  48 2.13  64 2.17
  67  0.250  0.136  0.634-  36 2.03  38 2.06  48 2.14  20 2.21  40 2.40
  68  0.000  0.638  0.665-  27 2.07  59 2.17  58 2.21  54 2.27
  69  0.267  0.536  0.668-  20 2.03  45 2.08  59 2.17
  70  0.381  0.302  0.670-  26 1.90  36 2.03  20 2.06
  71  0.738  0.029  0.675-   8 2.05  18 2.07  64 2.11
  72  0.511  0.076  0.679-  32 1.93  36 2.00  18 2.07
  73  0.157  0.804  0.678-  38 1.91  54 2.13  59 2.19
  74  0.619  0.324  0.665-  26 1.94  14 2.01  18 2.05
  75  0.497  0.559  0.662-   3 1.81  26 1.92  45 2.10
  76  0.834  0.499  0.678-  14 2.02  27 2.04  58 2.06
  77  0.872  0.876  0.632-   8 2.06  54 2.12  27 2.14  30 2.27  64 2.41
  78  0.609  0.778  0.672-  32 1.88   3 1.90   8 2.03
  79  0.722  0.628  0.627-   3 1.81  27 2.02   8 2.14  23 2.17  14 2.26
  80  0.256  0.750  0.590-  21 2.12  38 2.12  45 2.18  56 2.26  59 2.29  44 2.33
  81  0.990  0.277  0.592-  52 2.14  48 2.20  58 2.21  50 2.23  42 2.25  64 2.69
  82  0.122  0.616  0.547-  21 2.13   5 2.15  52 2.20  56 2.24  47 2.28  59 2.32
  83  0.862  0.094  0.565-  62 2.12  50 2.12  30 2.12  64 2.13  42 2.62
  84  0.252  0.368  0.542-  21 2.07  16 2.13  37 2.15  52 2.16  40 2.21  20 2.31
  85  0.497  0.756  0.591-   3 1.97  32 2.04  33 2.07  45 2.27  44 2.32  12 2.33
 
  LATTYP: Found a simple orthorhombic cell.
 ALAT       =     9.5644817352
 B/A-ratio  =     1.4398428730
 C/A-ratio  =     2.8922184390
  
  Lattice vectors:
  
 A1 = (   0.0000000000,  -9.5644817352,   0.0000000000)
 A2 = ( -13.7713508606,   0.0000000000,   0.0000000000)
 A3 = (   0.0000000000,   0.0000000000, -27.6625704340)


Analysis of symmetry for initial positions (statically):
=====================================================================
 Subroutine PRICEL returns:
 Original cell was already a primitive cell.
 

 Routine SETGRP: Setting up the symmetry group for a 
 simple orthorhombic supercell.


 Subroutine GETGRP returns: Found  1 space group operations
 (whereof  1 operations were pure point group operations)
 out of a pool of  8 trial point group operations.


The static configuration has the point symmetry C_1 .


Analysis of symmetry for dynamics (positions and initial velocities):
=====================================================================
 Subroutine PRICEL returns:
 Original cell was already a primitive cell.
 

 Routine SETGRP: Setting up the symmetry group for a 
 simple orthorhombic supercell.


 Subroutine GETGRP returns: Found  1 space group operations
 (whereof  1 operations were pure point group operations)
 out of a pool of  8 trial point group operations.


The dynamic configuration has the point symmetry C_1 .


Analysis of constrained symmetry for selective dynamics:
=====================================================================
 Subroutine PRICEL returns:
 Original cell was already a primitive cell.
 

 Routine SETGRP: Setting up the symmetry group for a 
 simple orthorhombic supercell.


 Subroutine GETGRP returns: Found  1 space group operations
 (whereof  1 operations were pure point group operations)
 out of a pool of  8 trial point group operations.


The constrained configuration has the point symmetry C_1 .


 Subroutine INISYM returns: Found  1 space group operations
 (whereof  1 operations are pure point group operations),
 and found     1 'primitive' translations

 
 
 KPOINTS: k-points                                

Automatic generation of k-mesh.
Space group operators:
 irot       det(A)        alpha          n_x          n_y          n_z        tau_x        tau_y        tau_z
    1     1.000000     0.000000     1.000000     0.000000     0.000000     0.000000     0.000000     0.000000
 
 Subroutine IBZKPT returns following result:
 ===========================================
 
 Found      5 irreducible k-points:
 
 Following reciprocal coordinates:
            Coordinates               Weight
  0.000000  0.000000  0.000000      1.000000
  0.333333  0.000000  0.000000      2.000000
  0.000000  0.333333  0.000000      2.000000
  0.333333  0.333333  0.000000      2.000000
 -0.333333  0.333333  0.000000      2.000000
 
 Following cartesian coordinates:
            Coordinates               Weight
  0.000000  0.000000  0.000000      1.000000
  0.024205  0.000000  0.000000      2.000000
  0.000000  0.034851  0.000000      2.000000
  0.024205  0.034851  0.000000      2.000000
 -0.024205  0.034851  0.000000      2.000000
 


--------------------------------------------------------------------------------------------------------




 Dimension of arrays:
   k-points           NKPTS =      5   k-points in BZ     NKDIM =      5   number of bands    NBANDS=    282
   number of dos      NEDOS =    301   number of ions     NIONS =     85
   non local maximal  LDIM  =      6   non local SUM 2l+1 LMDIM =     18
   total plane-waves  NPLWV = 846720
   max r-space proj   IRMAX =      1   max aug-charges    IRDMAX=  25433
   dimension x,y,z NGX =    84 NGY =   60 NGZ =  168
   dimension x,y,z NGXF=   168 NGYF=  120 NGZF=  336
   support grid    NGXF=   168 NGYF=  120 NGZF=  336
   ions per type =               6  10   4  18  26  21
 NGX,Y,Z   is equivalent  to a cutoff of  10.14, 10.43, 10.10 a.u.
 NGXF,Y,Z  is equivalent  to a cutoff of  20.28, 20.86, 20.19 a.u.


 I would recommend the setting:
   dimension x,y,z NGX =    83 NGY =   57 NGZ =  166
 SYSTEM =  (110) surface                           
 POSCAR =  Al Nb Ta Ti Zr                          

 Startparameter for this run:
   NWRITE =      2    write-flag & timer
   PREC   = normal    normal or accurate (medium, high low for compatibility)
   ISTART =      0    job   : 0-new  1-cont  2-samecut
   ICHARG =      2    charge: 1-file 2-atom 10-const
   ISPIN  =      1    spin polarized calculation?
   LNONCOLLINEAR =      F non collinear calculations
   LSORBIT =      F    spin-orbit coupling
   INIWAV =      1    electr: 0-lowe 1-rand  2-diag
   LASPH  =      F    aspherical Exc in radial PAW
   METAGGA=      F    non-selfconsistent MetaGGA calc.

 Electronic Relaxation 1
   ENCUT  =  600.0 eV  44.10 Ry    6.64 a.u.  27.50 19.10 55.25*2*pi/ulx,y,z
   ENINI  =  600.0     initial cutoff
   ENAUG  =  605.4 eV  augmentation charge cutoff
   NELM   =     60;   NELMIN=  2; NELMDL= -5     # of ELM steps 
   EDIFF  = 0.1E-03   stopping-criterion for ELM
   LREAL  =      F    real-space projection
   NLSPLINE    = F    spline interpolate recip. space projectors
   LCOMPAT=      F    compatible to vasp.4.4
   GGA_COMPAT  = T    GGA compatible to vasp.4.4-vasp.4.6
   LMAXPAW     = -100 max onsite density
   LMAXMIX     =    2 max onsite mixed and CHGCAR
   VOSKOWN=      0    Vosko Wilk Nusair interpolation
   ROPT   =    0.00000   0.00000   0.00000   0.00000
   ROPT   =    0.00000   0.00000
 Ionic relaxation
   EDIFFG = 0.1E-02   stopping-criterion for IOM
   NSW    =      0    number of steps for IOM
   NBLOCK =      1;   KBLOCK =      1    inner block; outer block 
   IBRION =     -1    ionic relax: 0-MD 1-quasi-New 2-CG
   NFREE  =      0    steps in history (QN), initial steepest desc. (CG)
   ISIF   =      2    stress and relaxation
   IWAVPR =     10    prediction:  0-non 1-charg 2-wave 3-comb
   ISYM   =      2    0-nonsym 1-usesym 2-fastsym
   LCORR  =      T    Harris-Foulkes like correction to forces

   POTIM  = 0.1000    time-step for ionic-motion
   TEIN   =    0.0    initial temperature
   TEBEG  =    0.0;   TEEND  =   0.0 temperature during run
   SMASS  =  -3.00    Nose mass-parameter (am)
   estimated Nose-frequenzy (Omega)   =  0.10E-29 period in steps =****** mass=  -0.433E-26a.u.
   SCALEE = 1.0000    scale energy and forces
   NPACO  =    256;   APACO  = 16.0  distance and # of slots for P.C.
   PSTRESS=    0.0 pullay stress

  Mass of Ions in am
   POMASS =  26.98 92.91180.95 47.88 91.22 16.00
  Ionic Valenz
   ZVAL   =   3.00 13.00  5.00  4.00  4.00  6.00
  Atomic Wigner-Seitz radii
   RWIGS  =  -1.00 -1.00 -1.00 -1.00 -1.00 -1.00
  virtual crystal weights 
   VCA    =   1.00  1.00  1.00  1.00  1.00  1.00
   NELECT =     470.0000    total number of electrons
   NUPDOWN=      -1.0000    fix difference up-down

 DOS related values:
   EMIN   =  10.00;   EMAX   =-10.00  energy-range for DOS
   EFERMI =   0.00
   ISMEAR =     2;   SIGMA  =   0.10  broadening in eV -4-tet -1-fermi 0-gaus

 Electronic relaxation 2 (details)
   IALGO  =     68    algorithm
   LDIAG  =      T    sub-space diagonalisation (order eigenvalues)
   LSUBROT=      F    optimize rotation matrix (better conditioning)
   TURBO    =      0    0=normal 1=particle mesh
   IRESTART =      0    0=no restart 2=restart with 2 vectors
   NREBOOT  =      0    no. of reboots
   NMIN     =      0    reboot dimension
   EREF     =   0.00    reference energy to select bands
   IMIX   =      4    mixing-type and parameters
     AMIX     =   0.40;   BMIX     =  1.00
     AMIX_MAG =   1.60;   BMIX_MAG =  1.00
     AMIN     =   0.10
     WC   =   100.;   INIMIX=   1;  MIXPRE=   1;  MAXMIX= -45

 Intra band minimization:
   WEIMIN = 0.0000     energy-eigenvalue tresh-hold
   EBREAK =  0.89E-07  absolut break condition
   DEPER  =   0.30     relativ break condition  

   TIME   =   0.40     timestep for ELM

  volume/ion in A,a.u.               =      42.87       289.27
  Fermi-wavevector in a.u.,A,eV,Ry     =   0.827175  1.563134  9.309352  0.684218
  Thomas-Fermi vector in A             =   1.939334
 
 Write flags
   LWAVE  =      F    write WAVECAR
   LCHARG =      T    write CHGCAR
   LVTOT  =      F    write LOCPOT, total local potential
   LVHAR  =      F    write LOCPOT, Hartree potential only
   LELF   =      F    write electronic localiz. function (ELF)
   LORBIT =      0    0 simple, 1 ext, 2 COOP (PROOUT)


 Dipole corrections
   LMONO  =      F    monopole corrections only (constant potential shift)
   LDIPOL =      F    correct potential (dipole corrections)
   IDIPOL =      0    1-x, 2-y, 3-z, 4-all directions 
   EPSILON=  1.0000000 bulk dielectric constant

 Exchange correlation treatment:
   GGA     =    --    GGA type
   LEXCH   =     8    internal setting for exchange type
   VOSKOWN=      0    Vosko Wilk Nusair interpolation
   LHFCALC =     F    Hartree Fock is set to
   LHFONE  =     F    Hartree Fock one center treatment
   AEXX    =    0.0000 exact exchange contribution

 Linear response parameters
   LEPSILON=     F    determine dielectric tensor
   LRPA    =     F    only Hartree local field effects (RPA)
   LNABLA  =     F    use nabla operator in PAW spheres
   LVEL    =     F    velocity operator in full k-point grid
   LINTERFAST=   F  fast interpolation
   KINTER  =     0    interpolate to denser k-point grid
   CSHIFT  =0.1000    complex shift for real part using Kramers Kronig
   OMEGAMAX=  -1.0    maximum frequency
   DEG_THRESHOLD= 0.2000000E-02 threshold for treating states as degnerate
   RTIME   =    0.100 relaxation time in fs

 Orbital magnetization related:
   ORBITALMAG=     F  switch on orbital magnetization
   LCHIMAG   =     F  perturbation theory with respect to B field
   DQ        =  0.001000  dq finite difference perturbation B field



--------------------------------------------------------------------------------------------------------


 Static calculation
 charge density and potential will be updated during run
 non-spin polarized calculation
 RMM-DIIS sequential band-by-band and
  variant of blocked Davidson during initial phase
 perform sub-space diagonalisation
    before iterative eigenvector-optimisation
 modified Broyden-mixing scheme, WC =      100.0
 initial mixing is a Kerker type mixing with AMIX =  0.4000 and BMIX =      1.0000
 Hartree-type preconditioning will be used
 using additional bands           47
 reciprocal scheme for non local part
 use partial core corrections
 calculate Harris-corrections to forces 
   (improved forces if not selfconsistent)
 use gradient corrections 
 use of overlap-Matrix (Vanderbilt PP)
 Methfessel and Paxton  Order N= 2 SIGMA  =   0.10


--------------------------------------------------------------------------------------------------------


  energy-cutoff  :      600.00
  volume of cell :     3643.60
      direct lattice vectors                 reciprocal lattice vectors
    13.771350861  0.000000000  0.000000000     0.072614518  0.000000000  0.000000000
     0.000000000  9.564481735  0.000000000     0.000000000  0.104553496  0.000000000
     0.000000000  0.000000000 27.662570434     0.000000000  0.000000000  0.036149931

  length of vectors
    13.771350861  9.564481735 27.662570434     0.072614518  0.104553496  0.036149931


 
 k-points in units of 2pi/SCALE and weight: k-points                                
   0.00000000  0.00000000  0.00000000       0.111
   0.02420484  0.00000000  0.00000000       0.222
   0.00000000  0.03485117  0.00000000       0.222
   0.02420484  0.03485117  0.00000000       0.222
  -0.02420484  0.03485117  0.00000000       0.222
 
 k-points in reciprocal lattice and weights: k-points                                
   0.00000000  0.00000000  0.00000000       0.111
   0.33333333  0.00000000  0.00000000       0.222
   0.00000000  0.33333333  0.00000000       0.222
   0.33333333  0.33333333  0.00000000       0.222
  -0.33333333  0.33333333  0.00000000       0.222
 
 position of ions in fractional coordinates (direct lattice) 
   0.62276447  0.86746430  0.37590333
   0.61768902  0.39724566  0.54700595
   0.59115257  0.63620830  0.62516755
   0.61839700  0.08363760  0.44965952
   0.96708289  0.64051664  0.54585230
   0.97963780  0.12056648  0.37767599
   0.72857308  0.34338307  0.45816820
   0.72412908  0.85151620  0.63432203
   0.51739597  0.60805875  0.36719826
   0.50668179  0.12592407  0.54927483
   0.61811078  0.34297293  0.36889183
   0.61544243  0.87045539  0.54635172
   0.74231148  0.84345710  0.46199300
   0.74206611  0.39559229  0.63464394
   0.39405298  0.84738672  0.36896032
   0.40723496  0.36709635  0.54525663
   0.61928761  0.60162497  0.45752798
   0.62912666  0.12604046  0.63647800
   0.27944195  0.83362269  0.45088327
   0.27047018  0.36449296  0.62466322
   0.27466198  0.58215382  0.54062074
   0.28324246  0.07725573  0.36149931
   0.73708236  0.63148214  0.54847884
   0.74002355  0.11549973  0.36646499
   0.49591756  0.83582580  0.45790018
   0.49298108  0.37165507  0.63721664
   0.86751775  0.65270449  0.62982653
   0.84724605  0.11017048  0.45460239
   0.85243583  0.34907103  0.37639265
   0.85396865  0.87650128  0.55080243
   0.52175105  0.33942658  0.46105252
   0.51572328  0.89911772  0.64544462
   0.49653436  0.61767956  0.53388140
   0.49943882  0.10200214  0.36464270
   0.40016663  0.58028412  0.45130253
   0.39589753  0.11277884  0.63742524
   0.25505811  0.36595738  0.46399110
   0.22834324  0.92329049  0.63555202
   0.25182599  0.61397660  0.37627308
   0.25513444  0.13728058  0.54701499
   0.86539888  0.85904646  0.37036829
   0.86338740  0.36571557  0.55078021
   0.38059813  0.35186696  0.37331264
   0.37630388  0.86755232  0.54704206
   0.37242221  0.64949463  0.63103567
   0.38408008  0.10357511  0.45579618
   0.11657381  0.61110574  0.46457054
   0.09579566  0.16553855  0.63755858
   0.99629861  0.59295863  0.36811234
   0.00707737  0.10474462  0.53870919
   0.11869311  0.87196302  0.37467704
   0.09803939  0.38940750  0.55242309
   0.99977952  0.33051389  0.45306987
   0.02459638  0.86514470  0.64342042
   0.14482272  0.33176249  0.36788561
   0.13636475  0.84960505  0.54620970
   0.97888047  0.87608504  0.46520830
   0.96329704  0.41572884  0.65463543
   0.14147489  0.62152427  0.63018001
   0.14721048  0.09173214  0.45072276
   0.73135245  0.60578495  0.36679988
   0.71779399  0.13173308  0.54209629
   0.86923259  0.59196168  0.45825814
   0.85732458  0.12553462  0.64098934
   0.36990184  0.89635704  0.64558796
   0.97557058  0.21336874  0.68333102
   0.24953901  0.13641087  0.63367404
   0.00017877  0.63826739  0.66476749
   0.26651853  0.53636919  0.66764983
   0.38104271  0.30171968  0.66964679
   0.73797319  0.02913010  0.67538894
   0.51109448  0.07589066  0.67938243
   0.15668743  0.80366974  0.67769607
   0.61856133  0.32412737  0.66472308
   0.49709626  0.55918628  0.66204779
   0.83415618  0.49942968  0.67842973
   0.87249449  0.87574849  0.63244044
   0.60899272  0.77778060  0.67239009
   0.72213479  0.62843533  0.62654518
   0.25631147  0.74960574  0.58989859
   0.98993178  0.27700825  0.59215806
   0.12242165  0.61587776  0.54687407
   0.86238086  0.09435004  0.56480463
   0.25247681  0.36828632  0.54174499
   0.49663340  0.75577399  0.59145663
 
 position of ions in cartesian coordinates  (Angst):
   8.57630799  8.29684649 10.39845223
   8.50641228  3.79944881 15.13159075
   8.14096940  6.08500264 17.29374140
   8.51616202  0.79995025 12.43873821
  13.31803773  6.12620967 15.09967773
  13.49093588  1.15315590 10.44748880
  10.03343557  3.28428114 12.67411000
   9.97223569  8.14431109 17.54697795
   7.12524148  5.81576681 10.15764776
   6.97769276  1.20439846 15.19435369
   8.51222037  3.28035836 10.20449636
   8.47547364  8.32545465 15.11349303
  10.22263181  8.06723005 12.77991378
  10.21925275  3.78363520 17.55588261
   5.42664188  8.10481479 10.20639088
   5.60817547  3.51108636 15.08319982
   8.52842696  5.75423100 12.65640004
   8.66392397  1.20551170 17.60661744
   3.84829318  7.97316903 12.47259035
   3.72473979  3.48618627 17.27979031
   3.78246655  5.56799956 14.95495934
   3.90063135  0.73891098 10.00000000
  10.15061977  6.03979939 15.17233441
  10.19112400  1.10469510 10.13736353
   6.82945470  7.99424061 12.66669595
   6.78901540  3.55468810 17.62705010
  11.94689130  6.24278017 17.42262082
  11.66772263  1.05372358 12.57547056
  11.73919286  3.33868345 10.41198829
  11.76030189  8.38328046 15.23661089
   7.18521672  3.24643930 12.75389771
   7.10220617  8.59959500 17.85465737
   6.83794895  5.90778483 14.76853196
   6.87794726  0.97559764 10.08695433
   5.51083508  5.55011685 12.48418803
   5.45204377  1.07867111 17.63282067
   3.51249472  3.50019267 12.83518635
   3.14459490  8.83079503 17.58100262
   3.46798404  5.87236796 10.40868071
   3.51354588  1.31301758 15.13184076
  11.91771166  8.21633417 10.24533883
  11.89001075  3.49787992 15.23599648
   5.24135036  3.36542512 10.32678719
   5.18221273  8.29768829 15.13258940
   5.12875686  6.21207948 17.45606861
   5.28930157  0.99064225 12.60849381
   1.60537885  5.84490969 12.85121538
   1.31923560  1.58329044 17.63650904
  13.72037774  5.67134198 10.18293350
   0.09746493  1.00182798 14.90208094
   1.63456451  8.33987442 10.36453009
   1.35013488  3.72448091 15.28144259
  13.76831459  3.16119411 12.53307716
   0.33872540  8.27466065 17.79866282
   1.99440444  3.17313630 10.17666150
   1.87792678  8.12603201 15.10956437
  13.48050634  8.37929939 12.86885734
  13.26590154  3.97623087 18.10889856
   1.94830037  5.94455753 17.43239882
   2.02728715  0.87737042 12.46815015
  10.07171117  5.79401911 10.14662739
   9.88499295  1.25995859 14.99577680
  11.97050705  5.66180669 12.67659812
  11.80651757  1.20067356 17.73141266
   5.09404801  8.57319050 17.85862241
  13.43492479  2.04076145 18.90269255
   3.43648922  1.30469926 17.52905280
   0.00246197  6.10469675 18.38917740
   3.67032014  5.13009332 18.46891051
   5.24747289  2.88579235 18.52415146
  10.16288778  0.27861427 18.68299405
   7.03846143  0.72585479 18.79346442
   2.15779759  7.68668452 18.74681524
   8.51842517  3.10011031 18.38794900
   6.84568706  5.34832692 18.31394366
  11.48745744  4.77678605 18.76711006
  12.01542771  8.37608040 17.49492824
   8.38665247  7.43906837 18.60003834
   9.94477152  6.01065822 17.33185015
   3.52975521  7.16959043 16.31811137
  13.63269786  2.64944034 16.38061392
   1.68591143  5.89055155 15.12794262
  11.87614939  0.90240928 15.62394789
   3.47694672  3.52246778 14.98605901
   6.83931280  7.22858655 16.36121079
 


--------------------------------------------------------------------------------------------------------


 k-point  1 :   0.0000 0.0000 0.0000  plane waves:  121663
 k-point  2 :   0.3333 0.0000 0.0000  plane waves:  121577
 k-point  3 :   0.0000 0.3333 0.0000  plane waves:  121622
 k-point  4 :   0.3333 0.3333 0.0000  plane waves:  121647
 k-point  5 :  -0.3333 0.3333 0.0000  plane waves:  121647

 maximum and minimum number of plane-waves per node :      5107     5041

 maximum number of plane-waves:    121663
 maximum index in each direction: 
   IXMAX=   27   IYMAX=   19   IZMAX=   55
   IXMIN=  -27   IYMIN=  -19   IZMIN=  -55

 WARNING: aliasing errors must be expected set NGX to 110 to avoid them
 WARNING: aliasing errors must be expected set NGY to  78 to avoid them
 WARNING: aliasing errors must be expected set NGZ to 222 to avoid them
 aliasing errors are usually negligible using standard VASP settings
 and one can safely disregard these warnings

 parallel 3D FFT for wavefunctions:
    minimum data exchange during FFTs selected (reduces bandwidth)
 parallel 3D FFT for charge:
    minimum data exchange during FFTs selected (reduces bandwidth)


 total amount of memory used by VASP on root node   139142. kBytes
========================================================================

   base      :      30000. kBytes
   nonl-proj :      28820. kBytes
   fftplans  :       6516. kBytes
   grid      :      15878. kBytes
   one-center:         62. kBytes
   wavefun   :      57866. kBytes
 
     INWAV:  cpu time    0.0000: real time    0.0000
 Broyden mixing: mesh for mixing (old mesh)
   NGX = 55   NGY = 39   NGZ =111
  (NGX  =168   NGY  =120   NGZ  =336)
  gives a total of 238095 points

 initial charge density was supplied:
 charge density of overlapping atoms calculated
 number of electron     470.0000000 magnetization 
 keeping initial charge density in first step


--------------------------------------------------------------------------------------------------------


 Maximum index for augmentation-charges         1033 (set IRDMAX)


--------------------------------------------------------------------------------------------------------


 First call to EWALD:  gamma=   0.115
 Maximum number of real-space cells 3x 4x 2
 Maximum number of reciprocal cells 3x 2x 5

 FEWALD executed in parallel
    FEWALD:  cpu time    0.0033: real time    0.0033


----------------------------------------- Iteration    1(   1)  ---------------------------------------


    POTLOK:  cpu time    0.1083: real time    0.1090
    SETDIJ:  cpu time    0.0162: real time    0.0171
     EDDAV:  cpu time   22.4922: real time   22.5084
       DOS:  cpu time    0.0018: real time    0.0018
    --------------------------------------------
      LOOP:  cpu time   22.6220: real time   22.6412

 eigenvalue-minimisations  :  2956
 total energy-change (2. order) : 0.6147860E+04  (-0.1808726E+05)
 number of electron     470.0000000 magnetization 
 augmentation part      470.0000000 magnetization 

 Free energy of the ion-electron system (eV)
  ---------------------------------------------------
  alpha Z        PSCENC =       756.20149568
  Ewald energy   TEWEN  =    120604.74792270
  -Hartree energ DENC   =   -146847.75801250
  -exchange      EXHF   =         0.00000000
  -V(xc)+E(xc)   XCENC  =     -2499.97099497
  PAW double counting   =     26716.82013786   -22663.35844260
  entropy T*S    EENTRO =         0.00479702
  eigenvalues    EBANDS =       875.56852581
  atomic energy  EATOM  =     29205.60414934
  Solvation  Ediel_sol  =         0.00000000
  ---------------------------------------------------
  free energy    TOTEN  =      6147.85957835 eV

  energy without entropy =     6147.85478133  energy(sigma->0) =     6147.85837910


--------------------------------------------------------------------------------------------------------




----------------------------------------- Iteration    1(   2)  ---------------------------------------


     EDDAV:  cpu time   22.4474: real time   22.4567
       DOS:  cpu time    0.0017: real time    0.0017
    --------------------------------------------
      LOOP:  cpu time   22.4516: real time   22.4619

 eigenvalue-minimisations  :  2964
 total energy-change (2. order) :-0.5193582E+04  (-0.5035121E+04)
 number of electron     470.0000000 magnetization 
 augmentation part      470.0000000 magnetization 

 Free energy of the ion-electron system (eV)
  ---------------------------------------------------
  alpha Z        PSCENC =       756.20149568
  Ewald energy   TEWEN  =    120604.74792270
  -Hartree energ DENC   =   -146847.75801250
  -exchange      EXHF   =         0.00000000
  -V(xc)+E(xc)   XCENC  =     -2499.97099497
  PAW double counting   =     26716.82013786   -22663.35844260
  entropy T*S    EENTRO =        -0.00395880
  eigenvalues    EBANDS =     -4318.00468575
  atomic energy  EATOM  =     29205.60414934
  Solvation  Ediel_sol  =         0.00000000
  ---------------------------------------------------
  free energy    TOTEN  =       954.27761096 eV

  energy without entropy =      954.28156976  energy(sigma->0) =      954.27860066


--------------------------------------------------------------------------------------------------------




----------------------------------------- Iteration    1(   3)  ---------------------------------------


     EDDAV:  cpu time   34.9871: real time   35.0008
       DOS:  cpu time    0.0018: real time    0.0018
    --------------------------------------------
      LOOP:  cpu time   34.9909: real time   35.0060

 eigenvalue-minimisations  :  5080
 total energy-change (2. order) :-0.1531660E+04  (-0.1486038E+04)
 number of electron     470.0000000 magnetization 
 augmentation part      470.0000000 magnetization 

 Free energy of the ion-electron system (eV)
  ---------------------------------------------------
  alpha Z        PSCENC =       756.20149568
  Ewald energy   TEWEN  =    120604.74792270
  -Hartree energ DENC   =   -146847.75801250
  -exchange      EXHF   =         0.00000000
  -V(xc)+E(xc)   XCENC  =     -2499.97099497
  PAW double counting   =     26716.82013786   -22663.35844260
  entropy T*S    EENTRO =        -0.00001749
  eigenvalues    EBANDS =     -5849.66865712
  atomic energy  EATOM  =     29205.60414934
  Solvation  Ediel_sol  =         0.00000000
  ---------------------------------------------------
  free energy    TOTEN  =      -577.38241910 eV

  energy without entropy =     -577.38240161  energy(sigma->0) =     -577.38241472


--------------------------------------------------------------------------------------------------------




----------------------------------------- Iteration    1(   4)  ---------------------------------------


     EDDAV:  cpu time   30.1885: real time   30.2000
       DOS:  cpu time    0.0017: real time    0.0017
    --------------------------------------------
      LOOP:  cpu time   30.1915: real time   30.2044

 eigenvalue-minimisations  :  4272
 total energy-change (2. order) :-0.2270936E+03  (-0.2208581E+03)
 number of electron     470.0000000 magnetization 
 augmentation part      470.0000000 magnetization 

 Free energy of the ion-electron system (eV)
  ---------------------------------------------------
  alpha Z        PSCENC =       756.20149568
  Ewald energy   TEWEN  =    120604.74792270
  -Hartree energ DENC   =   -146847.75801250
  -exchange      EXHF   =         0.00000000
  -V(xc)+E(xc)   XCENC  =     -2499.97099497
  PAW double counting   =     26716.82013786   -22663.35844260
  entropy T*S    EENTRO =        -0.00480685
  eigenvalues    EBANDS =     -6076.75747791
  atomic energy  EATOM  =     29205.60414934
  Solvation  Ediel_sol  =         0.00000000
  ---------------------------------------------------
  free energy    TOTEN  =      -804.47602925 eV

  energy without entropy =     -804.47122240  energy(sigma->0) =     -804.47482754


--------------------------------------------------------------------------------------------------------




----------------------------------------- Iteration    1(   5)  ---------------------------------------


     EDDAV:  cpu time   35.3277: real time   35.3431
       DOS:  cpu time    0.0017: real time    0.0017
    CHARGE:  cpu time    0.3722: real time    0.3728
    MIXING:  cpu time    0.0072: real time    0.0081
    --------------------------------------------
      LOOP:  cpu time   35.7102: real time   35.7285

 eigenvalue-minimisations  :  5136
 total energy-change (2. order) :-0.1821745E+02  (-0.1776560E+02)
 number of electron     469.9999954 magnetization 
 augmentation part       56.3147168 magnetization 

 Broyden mixing:
  rms(total) = 0.83816E+01    rms(broyden)= 0.83815E+01
  rms(prec ) = 0.88037E+01
  weight for this iteration     100.00

 Free energy of the ion-electron system (eV)
  ---------------------------------------------------
  alpha Z        PSCENC =       756.20149568
  Ewald energy   TEWEN  =    120604.74792270
  -Hartree energ DENC   =   -146847.75801250
  -exchange      EXHF   =         0.00000000
  -V(xc)+E(xc)   XCENC  =     -2499.97099497
  PAW double counting   =     26716.82013786   -22663.35844260
  entropy T*S    EENTRO =        -0.00303641
  eigenvalues    EBANDS =     -6094.97669846
  atomic energy  EATOM  =     29205.60414934
  Solvation  Ediel_sol  =         0.00000000
  ---------------------------------------------------
  free energy    TOTEN  =      -822.69347936 eV

  energy without entropy =     -822.69044294  energy(sigma->0) =     -822.69272025


--------------------------------------------------------------------------------------------------------




----------------------------------------- Iteration    1(   6)  ---------------------------------------


    POTLOK:  cpu time    0.1009: real time    0.1012
    SETDIJ:  cpu time    0.0094: real time    0.0094
    EDDIAG:  cpu time    1.4052: real time    1.4057
  RMM-DIIS:  cpu time   25.4321: real time   25.4423
    ORTHCH:  cpu time    0.3594: real time    0.3598
       DOS:  cpu time    0.0017: real time    0.0017
    CHARGE:  cpu time    0.3542: real time    0.3543
    MIXING:  cpu time    0.0051: real time    0.0051
    --------------------------------------------
      LOOP:  cpu time   27.6701: real time   27.6831

 eigenvalue-minimisations  :  4624
 total energy-change (2. order) :-0.1491001E+02  (-0.1562529E+03)
 number of electron     469.9999966 magnetization 
 augmentation part       70.0000598 magnetization 

 Broyden mixing:
  rms(total) = 0.50273E+01    rms(broyden)= 0.50269E+01
  rms(prec ) = 0.65005E+01
  weight for this iteration     100.00

 eigenvalues of (default mixing * dielectric matrix)
  average eigenvalue GAMMA=   0.7912
  0.7912

 Free energy of the ion-electron system (eV)
  ---------------------------------------------------
  alpha Z        PSCENC =       756.20149568
  Ewald energy   TEWEN  =    120604.74792270
  -Hartree energ DENC   =   -147846.62871256
  -exchange      EXHF   =         0.00000000
  -V(xc)+E(xc)   XCENC  =     -2459.05825824
  PAW double counting   =     31769.22236117   -27726.87131362
  entropy T*S    EENTRO =        -0.02431621
  eigenvalues    EBANDS =     -5140.79681626
  atomic energy  EATOM  =     29205.60414934
  Solvation  Ediel_sol  =         0.00000000
  ---------------------------------------------------
  free energy    TOTEN  =      -837.60348800 eV

  energy without entropy =     -837.57917179  energy(sigma->0) =     -837.59740895


--------------------------------------------------------------------------------------------------------




----------------------------------------- Iteration    1(   7)  ---------------------------------------


    POTLOK:  cpu time    0.0977: real time    0.0977
    SETDIJ:  cpu time    0.0092: real time    0.0092
    EDDIAG:  cpu time    1.5015: real time    1.5022
  RMM-DIIS:  cpu time   22.8227: real time   22.8319
    ORTHCH:  cpu time    0.3591: real time    0.3591
       DOS:  cpu time    0.0016: real time    0.0016
    CHARGE:  cpu time    0.3623: real time    0.3623
    MIXING:  cpu time    0.0036: real time    0.0036
    --------------------------------------------
      LOOP:  cpu time   25.1599: real time   25.1715

 eigenvalue-minimisations  :  4107
 total energy-change (2. order) :-0.1106133E+02  (-0.4116723E+02)
 number of electron     469.9999967 magnetization 
 augmentation part       68.2761302 magnetization 

 Broyden mixing:
  rms(total) = 0.45844E+01    rms(broyden)= 0.45844E+01
  rms(prec ) = 0.78528E+01
  weight for this iteration     100.00

 eigenvalues of (default mixing * dielectric matrix)
  average eigenvalue GAMMA=   0.6862
  1.0117  0.3607

 Free energy of the ion-electron system (eV)
  ---------------------------------------------------
  alpha Z        PSCENC =       756.20149568
  Ewald energy   TEWEN  =    120604.74792270
  -Hartree energ DENC   =   -147074.71057286
  -exchange      EXHF   =         0.00000000
  -V(xc)+E(xc)   XCENC  =     -2464.97683601
  PAW double counting   =     32629.56015826   -28598.96242052
  entropy T*S    EENTRO =         0.00167419
  eigenvalues    EBANDS =     -5906.13039069
  atomic energy  EATOM  =     29205.60414934
  Solvation  Ediel_sol  =         0.00000000
  ---------------------------------------------------
  free energy    TOTEN  =      -848.66481991 eV

  energy without entropy =     -848.66649410  energy(sigma->0) =     -848.66523846


--------------------------------------------------------------------------------------------------------




----------------------------------------- Iteration    1(   8)  ---------------------------------------


    POTLOK:  cpu time    0.0974: real time    0.0974
    SETDIJ:  cpu time    0.0093: real time    0.0093
    EDDIAG:  cpu time    1.4146: real time    1.4152
  RMM-DIIS:  cpu time   24.9825: real time   24.9924
    ORTHCH:  cpu time    0.3592: real time    0.3592
       DOS:  cpu time    0.0017: real time    0.0017
    CHARGE:  cpu time    0.3644: real time    0.3647
    MIXING:  cpu time    0.0037: real time    0.0037
    --------------------------------------------
      LOOP:  cpu time   27.2349: real time   27.2473

 eigenvalue-minimisations  :  4524
 total energy-change (2. order) : 0.8394100E+02  (-0.2357187E+02)
 number of electron     469.9999969 magnetization 
 augmentation part       57.3126129 magnetization 

 Broyden mixing:
  rms(total) = 0.35668E+01    rms(broyden)= 0.35668E+01
  rms(prec ) = 0.50745E+01
  weight for this iteration     100.00

 eigenvalues of (default mixing * dielectric matrix)
  average eigenvalue GAMMA=   0.6557
  1.2986  0.4307  0.2380

 Free energy of the ion-electron system (eV)
  ---------------------------------------------------
  alpha Z        PSCENC =       756.20149568
  Ewald energy   TEWEN  =    120604.74792270
  -Hartree energ DENC   =   -147536.77523896
  -exchange      EXHF   =         0.00000000
  -V(xc)+E(xc)   XCENC  =     -2466.84190965
  PAW double counting   =     33650.56908871   -29624.12839972
  entropy T*S    EENTRO =        -0.00533167
  eigenvalues    EBANDS =     -5354.09559610
  atomic energy  EATOM  =     29205.60414934
  Solvation  Ediel_sol  =         0.00000000
  ---------------------------------------------------
  free energy    TOTEN  =      -764.72381967 eV

  energy without entropy =     -764.71848800  energy(sigma->0) =     -764.72248675


--------------------------------------------------------------------------------------------------------




----------------------------------------- Iteration    1(   9)  ---------------------------------------


    POTLOK:  cpu time    0.0970: real time    0.0970
    SETDIJ:  cpu time    0.0092: real time    0.0092
    EDDIAG:  cpu time    1.4825: real time    1.4828
  RMM-DIIS:  cpu time   21.3262: real time   21.3352
    ORTHCH:  cpu time    0.3587: real time    0.3587
       DOS:  cpu time    0.0017: real time    0.0017
    CHARGE:  cpu time    0.3698: real time    0.3698
    MIXING:  cpu time    0.0040: real time    0.0040
    --------------------------------------------
      LOOP:  cpu time   23.6513: real time   23.6622

 eigenvalue-minimisations  :  3865
 total energy-change (2. order) : 0.4155893E+02  (-0.6797928E+01)
 number of electron     469.9999964 magnetization 
 augmentation part       58.8716786 magnetization 

 Broyden mixing:
  rms(total) = 0.21365E+01    rms(broyden)= 0.21365E+01
  rms(prec ) = 0.24787E+01
  weight for this iteration     100.00

 eigenvalues of (default mixing * dielectric matrix)
  average eigenvalue GAMMA=   0.7363
  1.6887  0.5203  0.5203  0.2158

 Free energy of the ion-electron system (eV)
  ---------------------------------------------------
  alpha Z        PSCENC =       756.20149568
  Ewald energy   TEWEN  =    120604.74792270
  -Hartree energ DENC   =   -147484.44983388
  -exchange      EXHF   =         0.00000000
  -V(xc)+E(xc)   XCENC  =     -2464.17729759
  PAW double counting   =     34827.99594448   -30794.69875166
  entropy T*S    EENTRO =        -0.00130104
  eigenvalues    EBANDS =     -5374.38722000
  atomic energy  EATOM  =     29205.60414934
  Solvation  Ediel_sol  =         0.00000000
  ---------------------------------------------------
  free energy    TOTEN  =      -723.16489197 eV

  energy without entropy =     -723.16359093  energy(sigma->0) =     -723.16456671


--------------------------------------------------------------------------------------------------------




----------------------------------------- Iteration    1(  10)  ---------------------------------------


    POTLOK:  cpu time    0.0975: real time    0.0975
    SETDIJ:  cpu time    0.0091: real time    0.0091
    EDDIAG:  cpu time    1.4085: real time    1.4092
  RMM-DIIS:  cpu time   23.1421: real time   23.1518
    ORTHCH:  cpu time    0.3584: real time    0.3584
       DOS:  cpu time    0.0017: real time    0.0017
    CHARGE:  cpu time    0.3535: real time    0.3538
    MIXING:  cpu time    0.0043: real time    0.0043
    --------------------------------------------
      LOOP:  cpu time   25.3773: real time   25.3895

 eigenvalue-minimisations  :  4169
 total energy-change (2. order) : 0.4611537E+01  (-0.7213224E+01)
 number of electron     469.9999966 magnetization 
 augmentation part       64.1419366 magnetization 

 Broyden mixing:
  rms(total) = 0.14200E+01    rms(broyden)= 0.14200E+01
  rms(prec ) = 0.18310E+01
  weight for this iteration     100.00

 eigenvalues of (default mixing * dielectric matrix)
  average eigenvalue GAMMA=   0.7376
  1.9561  0.5974  0.5974  0.3379  0.1994

 Free energy of the ion-electron system (eV)
  ---------------------------------------------------
  alpha Z        PSCENC =       756.20149568
  Ewald energy   TEWEN  =    120604.74792270
  -Hartree energ DENC   =   -147604.46515312
  -exchange      EXHF   =         0.00000000
  -V(xc)+E(xc)   XCENC  =     -2458.28985655
  PAW double counting   =     35971.02244593   -31929.39960807
  entropy T*S    EENTRO =         0.00512063
  eigenvalues    EBANDS =     -5263.97987199
  atomic energy  EATOM  =     29205.60414934
  Solvation  Ediel_sol  =         0.00000000
  ---------------------------------------------------
  free energy    TOTEN  =      -718.55335545 eV

  energy without entropy =     -718.55847609  energy(sigma->0) =     -718.55463561


--------------------------------------------------------------------------------------------------------




----------------------------------------- Iteration    1(  11)  ---------------------------------------


    POTLOK:  cpu time    0.0973: real time    0.0973
    SETDIJ:  cpu time    0.0094: real time    0.0094
    EDDIAG:  cpu time    1.5250: real time    1.5254
  RMM-DIIS:  cpu time   23.7289: real time   23.7386
    ORTHCH:  cpu time    0.3598: real time    0.3598
       DOS:  cpu time    0.0017: real time    0.0017
    CHARGE:  cpu time    0.3610: real time    0.3613
    MIXING:  cpu time    0.0043: real time    0.0043
    --------------------------------------------
      LOOP:  cpu time   26.0895: real time   26.1016

 eigenvalue-minimisations  :  4294
 total energy-change (2. order) : 0.2664682E+01  (-0.3283750E+01)
 number of electron     469.9999967 magnetization 
 augmentation part       63.4846555 magnetization 

 Broyden mixing:
  rms(total) = 0.10070E+01    rms(broyden)= 0.10070E+01
  rms(prec ) = 0.12774E+01
  weight for this iteration     100.00

 eigenvalues of (default mixing * dielectric matrix)
  average eigenvalue GAMMA=   0.7092
  1.9796  0.8229  0.4819  0.4819  0.2010  0.2878

 Free energy of the ion-electron system (eV)
  ---------------------------------------------------
  alpha Z        PSCENC =       756.20149568
  Ewald energy   TEWEN  =    120604.74792270
  -Hartree energ DENC   =   -147684.34321421
  -exchange      EXHF   =         0.00000000
  -V(xc)+E(xc)   XCENC  =     -2455.52554325
  PAW double counting   =     36974.09810547   -32930.39304717
  entropy T*S    EENTRO =         0.00506053
  eigenvalues    EBANDS =     -5186.28360211
  atomic energy  EATOM  =     29205.60414934
  Solvation  Ediel_sol  =         0.00000000
  ---------------------------------------------------
  free energy    TOTEN  =      -715.88867303 eV

[...]
   -.203E+02 -.312E+00 0.526E+02   0.159E+02 0.980E+00 -.536E+02   0.435E+01 -.669E+00 0.100E+01   0.215E-03 -.100E-02 -.172E-02
   -.420E+02 0.553E+01 0.435E+03   0.413E+02 -.493E+01 -.433E+03   0.674E+00 -.101E+01 -.231E+01   0.321E-03 0.546E-03 0.208E-03
   -.343E+03 -.445E+01 0.103E+04   0.342E+03 0.493E+01 -.104E+04   0.299E+00 -.142E+00 0.934E+00   0.199E-02 0.326E-02 -.560E-02
   -.246E+03 -.640E+02 -.137E+04   0.244E+03 0.655E+02 0.136E+04   0.208E+01 -.148E+01 0.135E+01   -.778E-03 -.100E-02 -.581E-02
   0.827E+02 -.111E+02 0.207E+04   -.823E+02 0.100E+02 -.207E+04   -.604E+00 0.568E+00 -.439E+01   -.974E-03 -.169E-02 0.796E-03
   0.132E+03 0.636E+01 0.125E+03   -.133E+03 -.666E+01 -.123E+03   0.355E+00 0.297E+00 -.142E+01   0.103E-02 0.313E-02 -.101E-01
   -.576E+02 0.143E+03 0.213E+04   0.584E+02 -.143E+03 -.213E+04   -.587E+00 -.382E+00 -.279E+01   0.248E-02 0.785E-03 0.968E-03
   -.241E+02 -.105E+02 0.269E+03   0.265E+02 0.110E+02 -.270E+03   -.237E+01 -.501E+00 0.595E+00   0.236E-02 -.186E-02 -.464E-02
   -.348E+03 -.362E+01 0.129E+04   0.349E+03 0.273E+01 -.129E+04   -.881E+00 0.118E+01 -.153E+01   -.263E-03 -.349E-02 -.456E-02
   -.199E+03 0.173E+03 -.119E+04   0.201E+03 -.174E+03 0.118E+04   -.212E+01 0.182E+01 0.505E+00   0.242E-02 0.425E-03 -.780E-02
   0.274E+03 -.124E+03 0.199E+04   -.274E+03 0.125E+03 -.198E+04   0.260E+00 -.391E+00 -.429E+01   -.248E-02 -.422E-03 -.210E-02
   0.105E+03 -.789E+02 0.160E+03   -.104E+03 0.790E+02 -.161E+03   -.171E+01 -.133E+00 0.137E+00   -.277E-02 0.319E-02 -.769E-02
   -.286E+02 -.176E+01 0.411E+03   0.283E+02 0.166E+01 -.412E+03   0.816E+00 0.153E+00 0.867E-01   0.106E-02 -.175E-02 -.127E-02
   -.235E+02 -.440E+02 -.506E+03   0.232E+02 0.437E+02 0.505E+03   0.284E+00 0.383E+00 0.105E+01   0.206E-02 0.458E-03 -.221E-02
   0.158E+03 -.215E+02 0.415E+03   -.157E+03 0.214E+02 -.416E+03   -.143E+01 0.421E+00 0.806E+00   -.661E-03 -.796E-03 -.200E-02
   0.166E+03 0.728E+01 -.480E+03   -.165E+03 -.511E+01 0.481E+03   -.126E+01 -.216E+01 -.486E+00   -.949E-03 0.172E-02 -.337E-02
   0.502E+02 -.533E+02 0.113E+03   -.481E+02 0.537E+02 -.115E+03   -.212E+01 -.357E+00 0.131E+01   0.162E-03 -.585E-03 -.191E-02
   0.112E+03 -.546E+02 0.607E+03   -.110E+03 0.546E+02 -.604E+03   -.826E+00 -.178E+00 -.276E+01   0.950E-04 -.190E-03 0.151E-03
   -.108E+03 0.706E+02 0.961E+02   0.108E+03 -.698E+02 -.976E+02   -.363E+00 -.778E+00 0.158E+01   -.362E-04 -.127E-02 -.211E-02
   -.950E+02 0.604E+02 0.656E+03   0.944E+02 -.599E+02 -.653E+03   0.438E+00 -.506E+00 -.276E+01   -.166E-04 0.129E-02 0.225E-03
   0.577E+02 -.283E+02 0.349E+03   -.587E+02 0.276E+02 -.349E+03   0.109E+01 0.908E+00 -.682E+00   -.508E-03 -.553E-03 -.168E-02
   0.284E+02 -.214E+01 -.419E+03   -.290E+02 0.230E+01 0.419E+03   0.604E+00 -.170E+00 0.465E+00   0.128E-03 0.132E-02 -.219E-02
   -.157E+03 0.727E+01 -.320E+03   0.157E+03 -.845E+01 0.319E+03   -.194E+00 0.118E+01 0.114E+01   -.356E-03 -.901E-03 -.185E-02
   -.142E+03 0.737E+01 0.388E+03   0.142E+03 -.739E+01 -.390E+03   0.396E+00 -.241E+00 0.645E+00   0.451E-03 0.182E-02 -.155E-02
   -.142E+03 -.561E+01 0.623E+03   0.141E+03 0.557E+01 -.620E+03   0.795E+00 -.664E-01 -.254E+01   0.118E-03 0.628E-03 0.822E-03
   -.165E+03 0.341E+02 0.786E+02   0.164E+03 -.348E+02 -.804E+02   0.148E+01 0.666E+00 0.181E+01   -.318E-03 -.864E-03 -.154E-02
   0.660E+02 0.195E+02 0.356E+03   -.661E+02 -.189E+02 -.356E+03   0.120E+00 -.253E+00 -.124E+00   0.431E-03 0.595E-03 -.128E-02
   0.859E+02 -.174E+02 -.525E+03   -.848E+02 0.185E+02 0.525E+03   -.105E+01 -.114E+01 0.832E+00   0.158E-02 -.120E-02 -.128E-02
   0.432E+02 0.264E+02 0.124E+03   -.433E+02 -.270E+02 -.125E+03   0.878E-01 0.621E+00 0.156E+01   -.469E-03 -.116E-02 -.206E-02
   0.303E+02 -.431E+00 0.633E+03   -.310E+02 0.379E+00 -.630E+03   0.602E+00 -.121E-01 -.246E+01   -.318E-03 0.454E-03 -.342E-03
   0.113E+03 0.853E+01 0.359E+03   -.112E+03 -.873E+01 -.359E+03   -.105E+01 0.665E+00 -.315E+00   -.654E-03 -.491E-03 -.828E-03
   0.848E+02 0.971E+01 -.432E+03   -.835E+02 -.849E+01 0.430E+03   -.130E+01 -.123E+01 0.124E+01   -.513E-03 0.103E-02 -.189E-02
   0.105E+03 0.212E+02 0.429E+03   -.105E+03 -.211E+02 -.430E+03   0.179E+00 -.407E+00 0.166E+01   -.213E-03 0.656E-03 -.110E-02
   0.995E+02 -.519E+02 -.404E+03   -.101E+03 0.517E+02 0.403E+03   0.121E+01 0.259E+00 0.649E+00   -.106E-02 -.943E-03 -.194E-02
   0.121E+03 0.373E+02 0.581E+03   -.121E+03 -.371E+02 -.578E+03   0.173E+00 -.521E+00 -.307E+01   -.241E-03 0.872E-04 0.118E-03
   0.122E+03 0.842E+02 0.760E+02   -.122E+03 -.848E+02 -.770E+02   0.138E+00 0.607E+00 0.102E+01   -.470E-03 0.904E-03 -.278E-02
   -.919E+02 -.110E+01 0.627E+03   0.921E+02 0.114E+01 -.623E+03   -.384E+00 -.173E-01 -.306E+01   0.741E-03 -.586E-03 -.151E-03
   -.867E+02 -.355E+02 0.710E+02   0.863E+02 0.368E+02 -.711E+02   0.480E+00 -.133E+01 0.109E+00   -.230E-03 0.883E-03 -.232E-02
   0.122E+03 0.313E+02 0.599E+03   -.121E+03 -.316E+02 -.597E+03   -.241E+00 0.366E+00 -.261E+01   -.151E-04 0.191E-03 -.121E-03
   0.125E+03 -.262E+02 0.908E+02   -.125E+03 0.273E+02 -.932E+02   -.269E+00 -.114E+01 0.233E+01   -.674E-03 -.101E-02 -.270E-02
   0.679E+02 0.489E+01 -.427E+03   -.680E+02 -.739E+01 0.426E+03   0.155E+00 0.250E+01 0.945E+00   -.711E-03 -.119E-02 -.232E-02
   0.102E+03 -.155E+01 0.383E+03   -.103E+03 0.128E+01 -.383E+03   0.534E+00 0.215E+00 -.219E+00   -.371E-03 0.480E-03 -.141E-02
   0.471E+02 -.663E+01 0.394E+03   -.471E+02 0.664E+01 -.395E+03   0.138E+00 0.253E+00 0.461E+00   -.140E-03 -.470E-03 -.146E-02
   -.196E+02 0.307E+02 -.425E+03   0.186E+02 -.314E+02 0.423E+03   0.911E+00 0.745E+00 0.200E+01   -.342E-03 0.109E-02 -.166E-02
   -.344E+02 -.111E+01 0.586E+03   0.348E+02 0.141E+01 -.582E+03   -.795E-01 -.255E+00 -.307E+01   0.175E-03 -.451E-03 0.520E-03
   -.104E+03 0.345E+02 0.124E+03   0.104E+03 -.350E+02 -.125E+03   0.303E+00 0.467E+00 0.420E+00   0.475E-03 0.101E-02 -.235E-02
   0.521E+02 -.519E+01 0.569E+03   -.520E+02 0.442E+01 -.566E+03   0.264E-01 0.278E+00 -.310E+01   -.937E-05 -.439E-03 0.896E-04
   0.568E+02 0.267E+02 0.383E+02   -.565E+02 -.270E+02 -.379E+02   -.330E+00 0.295E+00 -.398E+00   -.160E-04 0.564E-03 -.216E-02
   -.536E+02 -.887E+00 0.379E+03   0.538E+02 0.107E+01 -.380E+03   -.167E+00 0.579E+00 -.233E+00   -.278E-03 0.539E-03 -.145E-02
   -.422E+02 -.640E+02 -.423E+03   0.438E+02 0.638E+02 0.421E+03   -.161E+01 0.259E+00 0.207E+01   -.816E-04 -.521E-03 -.136E-02
   0.404E+02 0.340E+01 0.584E+03   -.398E+02 -.326E+01 -.580E+03   -.856E+00 -.273E+00 -.342E+01   -.542E-03 0.399E-03 0.472E-03
   0.664E+02 -.804E+02 0.820E+02   -.661E+02 0.811E+02 -.822E+02   -.297E+00 -.681E+00 0.122E+00   0.747E-04 -.812E-03 -.249E-02
   -.841E+02 0.717E+00 0.349E+03   0.837E+02 -.830E+00 -.348E+03   0.466E+00 -.147E+00 -.130E+01   0.845E-03 -.394E-03 -.207E-02
   -.120E+03 0.551E+00 -.498E+03   0.118E+03 -.973E+00 0.496E+03   0.257E+01 0.423E+00 0.136E+01   -.595E-04 0.906E-04 -.151E-02
   0.590E+02 0.416E+02 -.381E+03   -.587E+02 -.415E+02 0.381E+03   -.317E+00 -.145E+00 -.682E+00   -.139E-04 -.847E-03 -.217E-02
   0.470E+02 0.194E+01 0.375E+03   -.464E+02 -.204E+01 -.375E+03   -.536E+00 0.268E+00 -.487E+00   -.325E-03 0.364E-03 -.149E-02
   -.138E+03 -.434E+02 0.652E+03   0.137E+03 0.428E+02 -.649E+03   0.897E+00 0.252E-01 -.338E+01   0.420E-03 -.111E-02 0.475E-03
   -.654E+02 -.539E+02 0.709E+02   0.655E+02 0.533E+02 -.706E+02   -.743E-01 0.589E+00 -.332E+00   -.874E-04 0.125E-02 -.200E-02
   -.135E+03 0.438E+01 0.362E+03   0.133E+03 -.444E+01 -.362E+03   0.475E+00 0.419E+00 0.654E-01   0.115E-03 -.149E-02 -.124E-02
   -.105E+03 -.240E+02 -.464E+03   0.104E+03 0.250E+02 0.463E+03   0.144E+01 -.945E+00 0.108E+01   -.197E-03 0.777E-03 -.126E-02
   0.137E+03 0.106E+02 -.791E+03   -.138E+03 -.138E+02 0.796E+03   0.118E+01 0.316E+01 -.567E+01   -.154E-02 -.408E-02 -.200E-02
   -.104E+03 0.405E+02 -.996E+03   0.104E+03 -.453E+02 0.101E+04   -.434E+00 0.478E+01 -.165E+02   -.155E-03 0.168E-02 -.147E-02
   0.172E+03 0.196E+02 -.636E+03   -.172E+03 -.202E+02 0.642E+03   0.227E+00 0.572E+00 -.518E+01   -.354E-02 0.378E-02 -.342E-02
   -.943E+02 0.529E+01 -.847E+03   0.947E+02 -.339E+01 0.860E+03   -.396E+00 -.190E+01 -.128E+02   0.637E-03 -.119E-02 -.187E-02
   0.105E+03 0.377E+01 -.955E+03   -.106E+03 -.237E+01 0.977E+03   0.354E+00 -.141E+01 -.214E+02   -.202E-03 -.100E-02 -.341E-02
   0.109E+03 -.591E+01 -.101E+04   -.110E+03 0.660E+01 0.103E+04   0.892E+00 -.701E+00 -.211E+02   -.348E-02 0.379E-02 -.132E-03
   -.118E+03 -.144E+03 -.110E+04   0.120E+03 0.143E+03 0.112E+04   -.175E+01 0.666E+00 -.213E+02   -.759E-04 -.133E-02 -.215E-02
   0.725E+02 -.261E+02 -.109E+04   -.749E+02 0.321E+02 0.111E+04   0.240E+01 -.599E+01 -.215E+02   0.351E-02 0.107E-02 0.245E-02
   0.404E+02 -.375E+02 -.980E+03   -.380E+02 0.338E+02 0.100E+04   -.242E+01 0.372E+01 -.194E+02   -.130E-02 -.212E-02 -.643E-03
   0.809E+02 0.215E+02 -.986E+03   -.833E+02 -.164E+02 0.100E+04   0.242E+01 -.511E+01 -.175E+02   0.418E-02 0.760E-03 -.136E-02
   0.935E+02 0.125E+02 -.950E+03   -.954E+02 -.119E+02 0.971E+03   0.181E+01 -.658E+00 -.211E+02   -.765E-04 0.166E-02 -.127E-02
   -.175E+03 -.239E+02 -.110E+04   0.171E+03 0.296E+02 0.112E+04   0.467E+01 -.579E+01 -.194E+02   -.523E-03 -.162E-02 -.220E-02
   -.329E+03 -.381E+02 -.610E+03   0.333E+03 0.422E+02 0.613E+03   -.347E+01 -.412E+01 -.342E+01   -.161E-02 -.246E-03 -.931E-03
   0.116E+03 0.626E+02 -.116E+04   -.115E+03 -.674E+02 0.118E+04   -.837E+00 0.479E+01 -.233E+02   0.393E-02 -.161E-02 -.123E-02
   -.713E+02 0.899E+02 -.522E+03   0.750E+02 -.937E+02 0.528E+03   -.372E+01 0.387E+01 -.653E+01   -.400E-03 -.885E-04 -.341E-02
   0.104E+03 -.487E+02 -.221E+03   -.104E+03 0.496E+02 0.220E+03   0.209E+00 -.939E+00 0.131E+01   -.153E-03 -.357E-02 -.516E-02
   -.102E+03 -.111E+02 -.230E+03   0.976E+02 0.962E+01 0.231E+03   0.429E+01 0.152E+01 -.139E+01   -.302E-03 0.182E-02 -.293E-02
   0.119E+03 -.212E+02 0.950E+02   -.120E+03 0.229E+02 -.946E+02   0.130E+01 -.170E+01 -.356E+00   0.920E-03 -.582E-03 -.356E-02
   -.157E+03 -.283E+02 -.190E+02   0.158E+03 0.290E+02 0.166E+02   -.940E+00 -.677E+00 0.238E+01   0.269E-03 0.280E-02 -.239E-02
   0.255E+03 0.487E+02 0.122E+03   -.257E+03 -.501E+02 -.125E+03   0.253E+01 0.139E+01 0.382E+01   0.132E-02 0.228E-02 -.159E-02
   0.173E+03 0.627E+02 -.270E+03   -.175E+03 -.599E+02 0.268E+03   0.246E+01 -.273E+01 0.225E+01   0.558E-04 -.266E-02 -.449E-02
 -----------------------------------------------------------------------------------------------
   -.130E+02 0.873E+01 0.252E+03   -.682E-12 -.185E-12 0.136E-11   0.130E+02 -.873E+01 -.252E+03   0.448E-02 0.884E-03 -.162E+00
 
 
 POSITION                                       TOTAL-FORCE (eV/Angst)
 -----------------------------------------------------------------------------------
      8.57631      8.29685     10.39845        -0.047681     -0.145595      0.021164
      8.50641      3.79945     15.13159        -0.002241     -0.005793     -0.000809
      8.14097      6.08500     17.29374        -0.007425      0.010662     -0.000389
      8.51616      0.79995     12.43874        -0.100303     -0.110256      0.027735
     13.31804      6.12621     15.09968        -0.011865     -0.002428      0.013807
     13.49094      1.15316     10.44749        -0.030585     -0.402316     -0.062735
     10.03344      3.28428     12.67411         0.135115      0.344729     -0.533221
      9.97224      8.14431     17.54698        -0.004559     -0.001260     -0.001484
      7.12524      5.81577     10.15765        -0.162479     -0.522878      0.901717
      6.97769      1.20440     15.19435        -0.002689     -0.003644     -0.003120
      8.51222      3.28036     10.20450         0.189714      0.086741      0.716061
      8.47547      8.32545     15.11349        -0.002567     -0.005709     -0.000864
     10.22263      8.06723     12.77991         0.289564      0.283886      0.077028
     10.21925      3.78364     17.55588         0.002876     -0.000878     -0.000207
      5.42664      8.10481     10.20639         0.274734      0.129692      0.989438
      5.60818      3.51109     15.08320         0.000959     -0.003604      0.012750
      8.52843      5.75423     12.65640         0.505563      0.045640     -0.267505
      8.66392      1.20551     17.60662         0.020458      0.006767     -0.006498
      3.84829      7.97317     12.47259        -0.361198      0.355864     -0.285664
      3.72474      3.48619     17.27979        -0.002217      0.006515      0.029006
      3.78247      5.56800     14.95496         0.002524     -0.004667     -0.004324
      3.90063      0.73891     10.00000         0.499884     -0.141425      0.263030
     10.15062      6.03980     15.17233        -0.005974     -0.000601      0.007034
     10.19112      1.10470     10.13736        -0.162694     -0.019705      0.401730
      6.82945      7.99424     12.66670         0.095465      0.234044     -0.345915
      6.78902      3.55469     17.62705         0.000920     -0.006169      0.008976
     11.94689      6.24278     17.42262         0.002498      0.001286     -0.007205
     11.66772      1.05372     12.57547        -0.443808     -0.252918     -0.661975
     11.73919      3.33868     10.41199        -0.233527     -0.111343      0.658634
     11.76030      8.38328     15.23661         0.002276     -0.003810     -0.001219
      7.18522      3.24644     12.75390         0.026800      0.309510     -0.160246
      7.10221      8.59959     17.85466         0.004056     -0.006449      0.005597
      6.83795      5.90778     14.76853         0.004772      0.000532      0.003416
      6.87795      0.97560     10.08695        -0.075466     -0.064351      0.256771
      5.51084      5.55012     12.48419        -0.555831      0.463600     -0.476554
      5.45204      1.07867     17.63282        -0.002194     -0.005194     -0.002099
      3.51249      3.50019     12.83519         0.048823     -0.336570      0.055836
      3.14459      8.83080     17.58100         0.000143      0.001513      0.001265
      3.46798      5.87237     10.40868         0.021774     -0.319150     -0.218007
      3.51355      1.31302     15.13184         0.002448      0.000385     -0.000002
     11.91771      8.21633     10.24534        -0.253926      0.017485      0.736307
     11.89001      3.49788     15.23600         0.000826      0.001432      0.000894
      5.24135      3.36543     10.32679         0.126430      0.110363      0.098474
      5.18221      8.29769     15.13259         0.002466     -0.000592     -0.004190
      5.12876      6.21208     17.45607        -0.002095     -0.003944     -0.005934
      5.28930      0.99064     12.60849         0.270726     -0.056502     -0.254340
      1.60538      5.84491     12.85122         0.105747      0.259288     -0.768629
      1.31924      1.58329     17.63651        -0.001127     -0.002785      0.001101
     13.72038      5.67134     10.18293         0.282942      0.039787      0.483882
      0.09746      1.00183     14.90208        -0.003412      0.001737      0.001604
      1.63456      8.33987     10.36453         0.067520     -0.485457      0.136727
      1.35013      3.72448     15.28144        -0.000048     -0.000036     -0.000260
     13.76831      3.16119     12.53308         0.071812      0.760495     -0.478589
      0.33873      8.27466     17.79866        -0.002484     -0.000415     -0.002665
      1.99440      3.17314     10.17666        -0.226949     -0.136279      0.585691
      1.87793      8.12603     15.10956        -0.001298     -0.000915     -0.000856
     13.48051      8.37930     12.86886         0.059479     -0.260887     -1.092110
     13.26590      3.97623     18.10890         0.002743      0.001174     -0.003970
      1.94830      5.94456     17.43240         0.000752     -0.002327     -0.000314
      2.02729      0.87737     12.46815         0.115639      0.170978     -0.604014
     10.07171      5.79402     10.14663         0.168562     -0.559788      0.224579
      9.88499      1.25996     14.99578        -0.001428     -0.002203     -0.000659
     11.97051      5.66181     12.67660        -0.654029      0.351074     -0.495589
     11.80652      1.20067     17.73141         0.001412      0.000935      0.002012
      5.09405      8.57319     17.85862        -0.004691      0.003689      0.012995
     13.43492      2.04076     18.90269        -0.003885     -0.004057     -0.000636
      3.43649      1.30470     17.52905        -0.004807     -0.007236      0.003415
      0.00246      6.10470     18.38918        -0.002864     -0.002116     -0.004061
      3.67032      5.13009     18.46891        -0.003128     -0.004341      0.001200
      5.24747      2.88579     18.52415        -0.015377     -0.008331      0.012437
     10.16289      0.27861     18.68299        -0.004672      0.000105      0.000374
      7.03846      0.72585     18.79346         0.003136      0.006896     -0.005662
      2.15780      7.68668     18.74682        -0.002172      0.001516     -0.001929
      8.51843      3.10011     18.38795         0.000992     -0.000109      0.001060
      6.84569      5.34833     18.31394        -0.003144      0.003501      0.008790
     11.48746      4.77679     18.76711         0.004109     -0.001815      0.001660
     12.01543      8.37608     17.49493        -0.004010      0.001458     -0.000024
      8.38665      7.43907     18.60004        -0.008885      0.002902      0.001093
      9.94477      6.01066     17.33185        -0.004912     -0.001364      0.008161
      3.52976      7.16959     16.31811         0.001498      0.003043     -0.004557
     13.63270      2.64944     16.38061         0.004267     -0.002843      0.000984
      1.68591      5.89055     15.12794         0.005644     -0.000499     -0.002232
     11.87615      0.90241     15.62395        -0.001181      0.001996     -0.000994
      3.47695      3.52247     14.98606         0.006475      0.001348     -0.000520
      6.83931      7.22859     16.36121        -0.008717     -0.001016     -0.001653
 -----------------------------------------------------------------------------------
    total drift:                               -0.000653     -0.000831     -0.000005


--------------------------------------------------------------------------------------------------------



  FREE ENERGIE OF THE ION-ELECTRON SYSTEM (eV)
  ---------------------------------------------------
  free  energy   TOTEN  =      -712.73041631 eV

  energy  without entropy=     -712.73380037  energy(sigma->0) =     -712.73126232
 


--------------------------------------------------------------------------------------------------------


    POTLOK:  cpu time    0.1150: real time    0.1155


--------------------------------------------------------------------------------------------------------


     LOOP+:  cpu time  877.2978: real time  877.7441
    4ORBIT:  cpu time    0.0000: real time    0.0000

 total amount of memory used by VASP on root node   139142. kBytes
========================================================================

   base      :      30000. kBytes
   nonl-proj :      28820. kBytes
   fftplans  :       6516. kBytes
   grid      :      15878. kBytes
   one-center:         62. kBytes
   wavefun   :      57866. kBytes
 
  
  
 General timing and accounting informations for this job:
 ========================================================
  
                  Total CPU time used (sec):      895.844
                            User time (sec):      892.375
                          System time (sec):        3.469
                         Elapsed time (sec):      896.315
  
                   Maximum memory used (kb):      173388.
                   Average memory used (kb):           0.
  
                          Minor page faults:        50320
                          Major page faults:            0
                 Voluntary context switches:         1108
