 vasp.5.4.1 05Feb16 (build Mar 19 2020 08:54:17) complex                        
  
 executed on           IFC91_ompi date 2021.10.23  14:16:24
 running on   96 total cores
 distrk:  each k-point on   96 cores,    1 groups
 distr:  one band on NCORES_PER_BAND=  48 cores,    2 groups


--------------------------------------------------------------------------------------------------------


 INCAR:
 POTCAR:    PAW_PBE Al 04Jan2001                  
 POTCAR:    PAW_PBE Nb_sv 25May2007               
 POTCAR:    PAW_PBE Ta 17Jan2003                  
 POTCAR:    PAW_PBE Ti 08Apr2002                  
 POTCAR:   PAW_PBE Zr 08Apr2002                   
 POTCAR:    PAW_PBE O 08Apr2002                   

 ----------------------------------------------------------------------------- 
|                                                                             |
|           W    W    AA    RRRRR   N    N  II  N    N   GGGG   !!!           |
|           W    W   A  A   R    R  NN   N  II  NN   N  G    G  !!!           |
|           W    W  A    A  R    R  N N  N  II  N N  N  G       !!!           |
|           W WW W  AAAAAA  RRRRR   N  N N  II  N  N N  G  GGG   !            |
|           WW  WW  A    A  R   R   N   NN  II  N   NN  G    G                |
|           W    W  A    A  R    R  N    N  II  N    N   GGGG   !!!           |
|                                                                             |
|      For optimal performance we recommend to set                            |
|        NCORE= 4 - approx SQRT( number of cores)                             |
|      NCORE specifies how many cores store one orbital (NPAR=cpu/NCORE).     |
|      This setting can  greatly improve the performance of VASP for DFT.     |
|      The default, NPAR=number of cores might be grossly inefficient         |
|      on modern multi-core architectures or massively parallel machines.     |
|      Do your own testing !!!!                                               |
|      Unfortunately you need to use the default for GW and RPA calculations. |
|      (for HF NCORE is supported but not extensively tested yet)             |
|                                                                             |
 ----------------------------------------------------------------------------- 

 POTCAR:    PAW_PBE Al 04Jan2001                  
   VRHFIN =Al: s2p1                                                             
   LEXCH  = PE                                                                  
   EATOM  =    53.5387 eV,    3.9350 Ry                                         
                                                                                
   TITEL  = PAW_PBE Al 04Jan2001                                                
   LULTRA =        F    use ultrasoft PP ?                                      
   IUNSCR =        1    unscreen: 0-lin 1-nonlin 2-no                           
   RPACOR =    1.500    partial core radius                                     
   POMASS =   26.981; ZVAL   =    3.000    mass and valenz                      
   RCORE  =    1.900    outmost cutoff radius                                   
   RWIGS  =    2.650; RWIGS  =    1.402    wigner-seitz radius (au A)           
   ENMAX  =  240.300; ENMIN  =  180.225 eV                                      
   ICORE  =        2    local potential                                         
   LCOR   =        T    correct aug charges                                     
   LPAW   =        T    paw PP                                                  
   EAUG   =  291.052                                                            
   DEXC   =    0.000                                                            
   RMAX   =    1.939    core radius for proj-oper                               
   RAUG   =    1.300    factor for augmentation sphere                          
   RDEP   =    1.966    radius for radial grids                                 
   RDEPT  =    1.856    core radius for aug-charge                              
                                                                                
   Atomic configuration                                                         
    6 entries                                                                   
     n  l   j            E        occ.                                          
     1  0  0.50     -1511.1048   2.0000                                         
     2  0  0.50      -108.1629   2.0000                                         
     2  1  1.50       -69.6402   6.0000                                         
     3  0  0.50        -7.7528   2.0000                                         
     3  1  1.50        -2.7121   1.0000                                         
     3  2  2.50        -2.7212   0.0000                                         
   Description                                                                  
     l       E           TYP  RCUT    TYP  RCUT                                 
     0     -7.7528455     23  1.900                                             
     0     -3.3096929     23  1.900                                             
     1     -2.7120682     23  1.900                                             
     1     13.6058260     23  1.900                                             
     2     -2.7211652      7  1.900                                             
  local pseudopotential read in
  partial core-charges read in
  partial kinetic energy density read in
  atomic valenz-charges read in
  non local Contribution for L=           0  read in
    real space projection operators read in
  non local Contribution for L=           0  read in
    real space projection operators read in
  non local Contribution for L=           1  read in
    real space projection operators read in
  non local Contribution for L=           1  read in
    real space projection operators read in
    PAW grid and wavefunctions read in
 
   number of l-projection  operators is LMAX  =           4
   number of lm-projection operators is LMMAX =           8
 
 POTCAR:    PAW_PBE Nb_sv 25May2007               
   VRHFIN =Nb: 4p5s4d                                                           
   LEXCH  = PE                                                                  
   EATOM  =  1555.1913 eV,  114.3033 Ry                                         
                                                                                
   TITEL  = PAW_PBE Nb_sv 25May2007                                             
   LULTRA =        F    use ultrasoft PP ?                                      
   IUNSCR =        1    unscreen: 0-lin 1-nonlin 2-no                           
   RPACOR =    1.800    partial core radius                                     
   POMASS =   92.910; ZVAL   =   13.000    mass and valenz                      
   RCORE  =    2.400    outmost cutoff radius                                   
   RWIGS  =    2.400; RWIGS  =    1.270    wigner-seitz radius (au A)           
   ENMAX  =  293.235; ENMIN  =  219.927 eV                                      
   ICORE  =        3    local potential                                         
   LCOR   =        T    correct aug charges                                     
   LPAW   =        T    paw PP                                                  
   EAUG   =  455.659                                                            
   DEXC   =    0.000                                                            
   RMAX   =    2.456    core radius for proj-oper                               
   RAUG   =    1.300    factor for augmentation sphere                          
   RDEP   =    2.451    radius for radial grids                                 
   RDEPT  =    1.956    core radius for aug-charge                              
                                                                                
   Atomic configuration                                                         
   11 entries                                                                   
     n  l   j            E        occ.                                          
     1  0  0.50    -18805.2457   2.0000                                         
     2  0  0.50     -2630.2869   2.0000                                         
     2  1  1.50     -2348.4046   6.0000                                         
     3  0  0.50      -438.8757   2.0000                                         
     3  1  1.50      -346.7588   6.0000                                         
     3  2  2.50      -196.2560  10.0000                                         
     4  0  0.50       -58.3859   2.0000                                         
     5  0  0.50        -3.9816   1.0000                                         
     4  1  1.50       -34.5141   6.0000                                         
     4  2  2.50        -3.0408   4.0000                                         
     4  3  2.50        -1.3606   0.0000                                         
   Description                                                                  
     l       E           TYP  RCUT    TYP  RCUT                                 
     0    -58.3859094     23  2.200                                             
     0     -3.9816262     23  2.200                                             
     1    -34.5140738     23  2.200                                             
     1     13.6058260     23  2.200                                             
     2     -3.0408010     23  2.200                                             
     2     -0.1283038     23  2.200                                             
     3     -1.3605826     23  2.400                                             
  local pseudopotential read in
  partial core-charges read in
  partial kinetic energy density read in
  atomic valenz-charges read in
  non local Contribution for L=           0  read in
    real space projection operators read in
  non local Contribution for L=           0  read in
    real space projection operators read in
  non local Contribution for L=           1  read in
    real space projection operators read in
  non local Contribution for L=           1  read in
    real space projection operators read in
  non local Contribution for L=           2  read in
    real space projection operators read in
  non local Contribution for L=           2  read in
    real space projection operators read in
    PAW grid and wavefunctions read in
 
   number of l-projection  operators is LMAX  =           6
   number of lm-projection operators is LMMAX =          18
 
 POTCAR:    PAW_PBE Ta 17Jan2003                  
   VRHFIN =Ta:  6s5d                                                            
   LEXCH  = PE                                                                  
   EATOM  =   130.6506 eV,    9.6025 Ry                                         
                                                                                
   TITEL  = PAW_PBE Ta 17Jan2003                                                
   LULTRA =        F    use ultrasoft PP ?                                      
   IUNSCR =        1    unscreen: 0-lin 1-nonlin 2-no                           
   RPACOR =    2.330    partial core radius                                     
   POMASS =  180.948; ZVAL   =    5.000    mass and valenz                      
   RCORE  =    2.900    outmost cutoff radius                                   
   RWIGS  =    2.840; RWIGS  =    1.503    wigner-seitz radius (au A)           
   ENMAX  =  223.667; ENMIN  =  167.750 eV                                      
   RCLOC  =    2.205    cutoff for local pot                                    
   LCOR   =        T    correct aug charges                                     
   LPAW   =        T    paw PP                                                  
   EAUG   =  332.075                                                            
   DEXC   =    0.000                                                            
   RMAX   =    2.970    core radius for proj-oper                               
   RAUG   =    1.300    factor for augmentation sphere                          
   RDEP   =    3.060    radius for radial grids                                 
   RDEPT  =    2.354    core radius for aug-charge                              
                                                                                
   Atomic configuration                                                         
   16 entries                                                                   
     n  l   j            E        occ.                                          
     1  0  0.50    -67341.2807   2.0000                                         
     2  0  0.50    -11566.9376   2.0000                                         
     2  1  1.50    -10134.1182   6.0000                                         
     3  0  0.50     -2648.5620   2.0000                                         
     3  1  1.50     -2222.6012   6.0000                                         
     3  2  2.50     -1726.3120  10.0000                                         
     4  0  0.50      -538.6961   2.0000                                         
     4  1  1.50      -399.0129   6.0000                                         
     4  2  2.50      -220.3959  10.0000                                         
     4  3  3.50       -23.0374  14.0000                                         
     5  0  0.50       -71.2901   2.0000                                         
     5  1  1.50       -37.8225   6.0000                                         
     5  2  2.50        -2.6455   4.0000                                         
     6  0  0.50        -4.9623   1.0000                                         
     6  1  1.50        -1.3606   0.0000                                         
     5  3  2.50        -1.3606   0.0000                                         
   Description                                                                  
     l       E           TYP  RCUT    TYP  RCUT                                 
     2     -2.6455043     23  2.500                                             
     2     -0.6258895     23  2.500                                             
     0     -4.9622780     23  2.500                                             
     0      4.7531321     23  2.500                                             
     1     -1.3605826     23  2.900                                             
     1     27.2116520     23  2.900                                             
  local pseudopotential read in
  partial core-charges read in
  partial kinetic energy density read in
  atomic valenz-charges read in
  non local Contribution for L=           2  read in
    real space projection operators read in
  non local Contribution for L=           2  read in
    real space projection operators read in
  non local Contribution for L=           0  read in
    real space projection operators read in
  non local Contribution for L=           0  read in
    real space projection operators read in
  non local Contribution for L=           1  read in
    real space projection operators read in
  non local Contribution for L=           1  read in
    real space projection operators read in
    PAW grid and wavefunctions read in
 
   number of l-projection  operators is LMAX  =           6
   number of lm-projection operators is LMMAX =          18
 
 POTCAR:    PAW_PBE Ti 08Apr2002                  
   VRHFIN =Ti: d3 s1                                                            
   LEXCH  = PE                                                                  
   EATOM  =    94.7928 eV,    6.9671 Ry                                         
                                                                                
   TITEL  = PAW_PBE Ti 08Apr2002                                                
   LULTRA =        F    use ultrasoft PP ?                                      
   IUNSCR =        1    unscreen: 0-lin 1-nonlin 2-no                           
   RPACOR =    2.200    partial core radius                                     
   POMASS =   47.880; ZVAL   =    4.000    mass and valenz                      
   RCORE  =    2.800    outmost cutoff radius                                   
   RWIGS  =    2.500; RWIGS  =    1.323    wigner-seitz radius (au A)           
   ENMAX  =  178.330; ENMIN  =  133.747 eV                                      
   RCLOC  =    2.215    cutoff for local pot                                    
   LCOR   =        T    correct aug charges                                     
   LPAW   =        T    paw PP                                                  
   EAUG   =  328.883                                                            
   DEXC   =    0.000                                                            
   RMAX   =    2.868    core radius for proj-oper                               
   RAUG   =    1.300    factor for augmentation sphere                          
   RDEP   =    2.885    radius for radial grids                                 
   RDEPT  =    2.320    core radius for aug-charge                              
                                                                                
   Atomic configuration                                                         
    9 entries                                                                   
     n  l   j            E        occ.                                          
     1  0  0.50     -4865.3608   2.0000                                         
     2  0  0.50      -533.1367   2.0000                                         
     2  1  1.50      -440.5031   6.0000                                         
     3  0  0.50       -59.3186   2.0000                                         
     3  1  1.50       -35.7012   6.0000                                         
     3  2  2.50        -1.9157   3.0000                                         
     4  0  0.50        -3.7291   1.0000                                         
     4  1  1.50        -4.0817   0.0000                                         
     4  3  2.50        -1.3606   0.0000                                         
   Description                                                                  
     l       E           TYP  RCUT    TYP  RCUT                                 
     2     -1.9156924     23  2.800                                             
     2     -0.4062961     23  2.800                                             
     0     -3.7290832     23  2.800                                             
     0     20.4087390     23  2.800                                             
     1     -5.4423304     23  2.800                                             
  local pseudopotential read in
  partial core-charges read in
  partial kinetic energy density read in
  atomic valenz-charges read in
  non local Contribution for L=           2  read in
    real space projection operators read in
  non local Contribution for L=           2  read in
    real space projection operators read in
  non local Contribution for L=           0  read in
    real space projection operators read in
  non local Contribution for L=           0  read in
    real space projection operators read in
  non local Contribution for L=           1  read in
    real space projection operators read in
    PAW grid and wavefunctions read in
 
   number of l-projection  operators is LMAX  =           5
   number of lm-projection operators is LMMAX =          15
 
 POTCAR:   PAW_PBE Zr 08Apr2002                   
   VRHFIN =Zr: 5s4d5p                                                           
   LEXCH  = PE                                                                  
   EATOM  =    77.8472 eV,    5.7216 Ry                                         
                                                                                
   TITEL  = PAW_PBE Zr 08Apr2002                                                
   LULTRA =        F    use ultrasoft PP ?                                      
   IUNSCR =        1    unscreen: 0-lin 1-nonlin 2-no                           
   RPACOR =    2.200    partial core radius                                     
   POMASS =   91.224; ZVAL   =    4.000    mass and valenz                      
   RCORE  =    3.000    outmost cutoff radius                                   
   RWIGS  =    3.070; RWIGS  =    1.625    wigner-seitz radius (au A)           
   ENMAX  =  154.632; ENMIN  =  115.974 eV                                      
   RCLOC  =    2.213    cutoff for local pot                                    
   LCOR   =        T    correct aug charges                                     
   LPAW   =        T    paw PP                                                  
   EAUG   =  243.217                                                            
   DEXC   =    -.082                                                            
   RMAX   =    3.708    core radius for proj-oper                               
   RAUG   =    1.300    factor for augmentation sphere                          
   RDEP   =    3.146    radius for radial grids                                 
   QCUT   =   -3.371; QGAM   =    6.742    optimization parameters              
                                                                                
   Description                                                                  
     l     E      TYP  RCUT    TYP  RCUT                                        
     2   .000     23  3.000                                                     
     2   .000     23  3.000                                                     
     0   .000     23  3.000                                                     
     0  2.000     23  3.000                                                     
     1  -.400     23  3.000                                                     
     3   .000      7   .000                                                     
  local pseudopotential read in
  partial core-charges read in
  atomic valenz-charges read in
  non local Contribution for L=           2  read in
    real space projection operators read in
  non local Contribution for L=           2  read in
    real space projection operators read in
  non local Contribution for L=           0  read in
    real space projection operators read in
  non local Contribution for L=           0  read in
    real space projection operators read in
  non local Contribution for L=           1  read in
    real space projection operators read in
    PAW grid and wavefunctions read in
 
   number of l-projection  operators is LMAX  =           5
   number of lm-projection operators is LMMAX =          15
 
 POTCAR:    PAW_PBE O 08Apr2002                   
   VRHFIN =O: s2p4                                                              
   LEXCH  = PE                                                                  
   EATOM  =   432.3788 eV,   31.7789 Ry                                         
                                                                                
   TITEL  = PAW_PBE O 08Apr2002                                                 
   LULTRA =        F    use ultrasoft PP ?                                      
   IUNSCR =        1    unscreen: 0-lin 1-nonlin 2-no                           
   RPACOR =    1.200    partial core radius                                     
   POMASS =   16.000; ZVAL   =    6.000    mass and valenz                      
   RCORE  =    1.520    outmost cutoff radius                                   
   RWIGS  =    1.550; RWIGS  =    0.820    wigner-seitz radius (au A)           
   ENMAX  =  400.000; ENMIN  =  300.000 eV                                      
   ICORE  =        2    local potential                                         
   LCOR   =        T    correct aug charges                                     
   LPAW   =        T    paw PP                                                  
   EAUG   =  605.392                                                            
   DEXC   =    0.000                                                            
   RMAX   =    1.553    core radius for proj-oper                               
   RAUG   =    1.300    factor for augmentation sphere                          
   RDEP   =    1.550    radius for radial grids                                 
   RDEPT  =    1.329    core radius for aug-charge                              
                                                                                
   Atomic configuration                                                         
    4 entries                                                                   
     n  l   j            E        occ.                                          
     1  0  0.50      -514.6923   2.0000                                         
     2  0  0.50       -23.9615   2.0000                                         
     2  1  0.50        -9.0305   4.0000                                         
     3  2  1.50        -9.5241   0.0000                                         
   Description                                                                  
     l       E           TYP  RCUT    TYP  RCUT                                 
     0    -23.9615318     23  1.200                                             
     0     -9.5240782     23  1.200                                             
     1     -9.0304911     23  1.520                                             
     1      8.1634956     23  1.520                                             
     2     -9.5240782      7  1.500                                             
  local pseudopotential read in
  partial core-charges read in
  partial kinetic energy density read in
  kinetic energy density of atom read in
  atomic valenz-charges read in
  non local Contribution for L=           0  read in
    real space projection operators read in
  non local Contribution for L=           0  read in
    real space projection operators read in
  non local Contribution for L=           1  read in
    real space projection operators read in
  non local Contribution for L=           1  read in
    real space projection operators read in
    PAW grid and wavefunctions read in
 
   number of l-projection  operators is LMAX  =           4
   number of lm-projection operators is LMMAX =           8
 

 ----------------------------------------------------------------------------- 
|                                                                             |
|  ADVICE TO THIS USER RUNNING 'VASP/VAMP'   (HEAR YOUR MASTER'S VOICE ...):  |
|                                                                             |
|      You have a (more or less) 'large supercell' and for larger cells       |
|      it might be more efficient to use real space projection opertators     |
|      So try LREAL= Auto  in the INCAR   file.                               |
|      Mind: At the moment your POTCAR file does not contain real space       |
|       projectors, and has to be modified,  BUT if you                       |
|      want to do an extremely  accurate calculation you might also keep the  |
|      reciprocal projection scheme          (i.e. LREAL=.FALSE.)             |
|                                                                             |
 ----------------------------------------------------------------------------- 

 WARNING: PSMAXN for non-local potential too small
          PSMAXN should be >   12.5490833729506       NTYP=           5
  PAW_PBE Al 04Jan2001                  :
 energy of atom  1       EATOM=  -53.5387
 kinetic energy error for atom=    0.0002 (will be added to EATOM!!)
  PAW_PBE Nb_sv 25May2007               :
 energy of atom  2       EATOM=-1555.1913
 kinetic energy error for atom=    0.0037 (will be added to EATOM!!)
  PAW_PBE Ta 17Jan2003                  :
 energy of atom  3       EATOM= -130.6506
 kinetic energy error for atom=    0.0004 (will be added to EATOM!!)
  PAW_PBE Ti 08Apr2002                  :
 energy of atom  4       EATOM=  -94.7928
 kinetic energy error for atom=    0.0001 (will be added to EATOM!!)
 PAW_PBE Zr 08Apr2002                   :
 energy of atom  5       EATOM=  -77.8472
 kinetic energy error for atom=    0.0001 (will be added to EATOM!!)
  PAW_PBE O 08Apr2002                   :
 energy of atom  6       EATOM= -432.3788
 kinetic energy error for atom=    0.0168 (will be added to EATOM!!)
 
 
 POSCAR: Al Nb Ta Ti Zr                          
  positions in direct lattice
  velocities in cartesian coordinates
 exchange correlation table for  LEXCH =        8
   RHO(1)=    0.500       N(1)  =     2000
   RHO(2)=  100.500       N(2)  =     4000
 


--------------------------------------------------------------------------------------------------------


 ion  position               nearest neighbor table
   1  0.623  0.867  0.376-  34 2.83  25 2.88  24 2.88   9 2.88  13 2.90   4 2.91  61 2.93  15 3.16
                            41 3.35  17 3.40
   2  0.624  0.390  0.547-  14 2.79  31 2.81  26 2.81  23 2.82  33 2.85  10 2.88   7 2.89  62 3.00
                             3 3.11  18 3.18  17 3.20  42 3.32
   3  0.615  0.628  0.624-  32 2.70  14 2.79   8 2.83  26 2.84  23 2.88  33 2.89  27 3.08   2 3.11
                            45 3.20
   4  0.618  0.084  0.450-  31 2.80  24 2.86  34 2.87  13 2.88   1 2.91  25 2.92   7 2.92  10 2.97
                            62 2.97  28 3.16  12 3.17  46 3.24
   5  0.982  0.640  0.551-  30 2.79  27 2.87  56 2.93  42 2.95  52 3.00  63 3.05  47 3.05  54 3.12
                            59 3.18  58 3.26  57 3.28
   6  0.980  0.121  0.378-  29 2.80  28 2.80  53 2.91  41 2.96  51 3.05  55 3.05  60 3.08  57 3.37

   7  0.729  0.343  0.458-  28 2.77  29 2.83  31 2.85  17 2.89   2 2.89  11 2.90   4 2.92  62 3.04
                            63 3.07  42 3.08
   8  0.724  0.879  0.623-  71 2.03  30 2.64  32 2.67  27 2.71  12 2.78   3 2.83  18 2.89  64 3.17
                            62 3.33
   9  0.517  0.608  0.367-  35 2.84  15 2.85  17 2.87   1 2.88  11 2.89  61 2.95  43 3.10
  10  0.513  0.135  0.542-  16 2.81  18 2.85   2 2.88  12 2.91  36 2.92  31 2.97   4 2.97  46 2.98
                            62 3.10  44 3.12
  11  0.618  0.343  0.369-  24 2.75  34 2.83  31 2.87   9 2.89   7 2.90  61 2.96  43 3.27
  12  0.617  0.871  0.538-  13 2.73  32 2.78   8 2.78  25 2.79  23 2.80  33 2.90  10 2.91  62 2.95
                             4 3.17  44 3.30
  13  0.742  0.843  0.462-  12 2.73  17 2.87   4 2.88   1 2.90  23 2.93  28 2.94  30 2.96  63 2.98
                            41 3.05  57 3.27  62 3.42
  14  0.746  0.407  0.628-  27 2.64   3 2.79   2 2.79  42 2.81  18 2.94  64 3.02  58 3.05
  15  0.394  0.847  0.369-  22 2.68  19 2.76  25 2.83  34 2.84   9 2.85  39 2.98   1 3.16  46 3.43

  16  0.390  0.370  0.546-  21 2.65  26 2.77  20 2.80  10 2.81  33 2.84  40 2.92  37 2.93  31 2.98
                            45 3.47
  17  0.619  0.602  0.458-  33 2.80  23 2.81  25 2.81  31 2.85   9 2.87  13 2.87   7 2.89  61 2.95
                            35 3.03   2 3.20   1 3.40  63 3.44
  18  0.630  0.149  0.626-  72 2.04  71 2.14  26 2.84  10 2.85  62 2.87   8 2.89  32 2.89  14 2.94
                            36 3.11   2 3.18  64 3.20
  19  0.279  0.834  0.451-  15 2.76  35 2.94  46 2.96  39 2.97  44 2.99  25 2.99  60 3.07  51 3.08
                            47 3.12  56 3.22  21 3.29
  20  0.282  0.355  0.631-  69 2.01  70 2.04  67 2.21  16 2.80  36 2.94  48 3.02  26 3.04  40 3.11
                            45 3.12  52 3.12  59 3.23
  21  0.278  0.593  0.536-  16 2.65  35 2.88  45 2.95  37 2.96  52 2.96  47 2.98  33 3.02  44 3.03
                            56 3.11  19 3.29  59 3.36
  22  0.283  0.077  0.361-  15 2.68  46 2.97  43 2.97  34 2.99  51 3.02  55 3.10  60 3.10
  23  0.737  0.635  0.539-  30 2.76  27 2.78  12 2.80  17 2.81   2 2.82   3 2.88  63 2.92  13 2.93
                            42 2.98
  24  0.740  0.115  0.366-  29 2.73  11 2.75  28 2.85   4 2.86   1 2.88  41 3.00
  25  0.496  0.836  0.458-  35 2.78  12 2.79  17 2.81  15 2.83   1 2.88   4 2.92  44 2.96  19 2.99
                            46 2.99  33 3.00
  26  0.502  0.381  0.629-  70 1.93  16 2.77   2 2.81  18 2.84   3 2.84  36 2.94  45 3.02  20 3.04

  27  0.838  0.649  0.627-  68 2.10  14 2.64   8 2.71  58 2.77  23 2.78   5 2.87  30 2.92   3 3.08
                            54 3.10  42 3.40
  28  0.847  0.110  0.455-  62 2.76   7 2.77   6 2.80  24 2.85  57 2.90  13 2.94  53 2.98  29 3.15
                             4 3.16  50 3.18  41 3.36
  29  0.852  0.349  0.376-  24 2.73   6 2.80   7 2.83  53 2.94  61 2.98  49 3.07  28 3.15  63 3.25

  30  0.854  0.866  0.553-   8 2.64  23 2.76   5 2.79  27 2.92  13 2.96  62 2.98  57 2.98  54 3.04
                            50 3.07
  31  0.522  0.339  0.461-   4 2.80   2 2.81  17 2.85   7 2.85  35 2.86  11 2.87  46 2.95  10 2.97
                            16 2.98  43 3.11
  32  0.530  0.883  0.628-  72 1.96  65 2.06   8 2.67   3 2.70  36 2.73  12 2.78  18 2.89  45 3.05
                            44 3.10
  33  0.496  0.623  0.538-  35 2.76  17 2.80  16 2.84   2 2.85   3 2.89  12 2.90  44 2.91  45 2.93
                            25 3.00  21 3.02
  34  0.499  0.102  0.365-  11 2.83   1 2.83  15 2.84   4 2.87  43 2.91  46 2.98  22 2.99
  35  0.400  0.580  0.451-  33 2.76  25 2.78   9 2.84  31 2.86  21 2.88  37 2.88  39 2.93  19 2.94
                            17 3.03  43 3.08
  36  0.407  0.106  0.633-  72 1.98  70 2.04  67 2.06  65 2.16  32 2.73  10 2.92  20 2.94  26 2.94
                            38 3.03  18 3.11  40 3.17  44 3.28
  37  0.255  0.366  0.464-  35 2.88  16 2.93  21 2.96  47 3.02  60 3.04  43 3.05  55 3.08  46 3.08
                            52 3.15  40 3.19  39 3.39
  38  0.233  0.911  0.633-  73 1.91  65 2.05  67 2.09  56 2.87  36 3.03  59 3.04  48 3.10  44 3.14
                            54 3.16  40 3.21  45 3.28
  39  0.252  0.614  0.376-  35 2.93  19 2.97  15 2.98  47 3.07  43 3.07  51 3.07  55 3.08  37 3.39
                            49 3.53
  40  0.251  0.139  0.548-  67 2.38  16 2.92  52 3.06  44 3.07  60 3.09  20 3.11  46 3.17  36 3.17
                            37 3.19  48 3.19  56 3.21  38 3.21  50 3.55
  41  0.865  0.859  0.370-   6 2.96  24 3.00  61 3.05  13 3.05  57 3.06  49 3.12   1 3.35  28 3.36
                            51 3.49  63 3.53
  42  0.865  0.383  0.546-  14 2.81   5 2.95  23 2.98  62 3.03  58 3.07   7 3.08  63 3.14  50 3.14
                            53 3.21   2 3.32  27 3.40  52 3.49  64 3.51
  43  0.381  0.352  0.373-  34 2.91  22 2.97  37 3.05  39 3.07  35 3.08   9 3.10  31 3.11  55 3.26
                            11 3.27  46 3.29
  44  0.378  0.874  0.546-  65 2.34  33 2.91  25 2.96  19 2.99  21 3.03  40 3.07  32 3.10  10 3.12
                            45 3.13  38 3.14  36 3.28  12 3.30  56 3.31  46 3.33
  45  0.383  0.646  0.627-  69 2.13  65 2.27  33 2.93  21 2.95  26 3.02  32 3.05  20 3.12  44 3.13
                             3 3.20  38 3.28  59 3.36  16 3.47
  46  0.384  0.104  0.456-  31 2.95  19 2.96  22 2.97  10 2.98  34 2.98  25 2.99  37 3.08  40 3.17
                             4 3.24  60 3.27  43 3.29  44 3.33  15 3.43
  47  0.117  0.611  0.465-  21 2.98  37 3.02   5 3.05  39 3.07  19 3.12  53 3.14  49 3.15  56 3.15
                            57 3.17  52 3.24  63 3.42  51 3.52  55 3.80
  48  0.102  0.174  0.636-  66 2.08  67 2.20  50 3.01  20 3.02  52 3.09  58 3.10  38 3.10  40 3.19
                            54 3.24  64 3.34
  49  0.996  0.593  0.368-  63 3.05  29 3.07  41 3.12  47 3.15  51 3.16  55 3.23  53 3.44  39 3.53
                            61 3.65  57 3.82
  50  0.995  0.113  0.543-  48 3.01  30 3.07  57 3.14  42 3.14  28 3.18  52 3.19  56 3.23  53 3.24
                            64 3.28  60 3.32  54 3.44  62 3.54  40 3.55
  51  0.119  0.872  0.375-  60 3.00  22 3.02   6 3.05  39 3.07  19 3.08  57 3.16  49 3.16  41 3.49
                            47 3.52
  52  0.117  0.394  0.554-  21 2.96   5 3.00  40 3.06  48 3.09  20 3.12  59 3.15  37 3.15  50 3.19
                            47 3.24  58 3.26  53 3.29  42 3.49
  53  1.000  0.331  0.453-   6 2.91  29 2.94  28 2.98  60 3.06  63 3.08  55 3.09  47 3.14  42 3.21
                            50 3.24  52 3.29  49 3.44
  54  0.006  0.865  0.633-  73 2.18  68 2.19  59 2.96  30 3.04  56 3.07  27 3.10   5 3.12  38 3.16
                            48 3.24  64 3.32  50 3.44
  55  0.145  0.332  0.368-   6 3.05  37 3.08  39 3.08  53 3.09  22 3.10  49 3.23  60 3.24  43 3.26
                            47 3.80
  56  0.138  0.847  0.544-  38 2.87   5 2.93  54 3.07  57 3.10  21 3.11  47 3.15  40 3.21  19 3.22
                            50 3.23  44 3.31  59 3.32  60 3.48
  57  0.979  0.876  0.465-  28 2.90  30 2.98  41 3.06  56 3.10  63 3.11  60 3.13  50 3.14  51 3.16
                            47 3.17  13 3.27   5 3.28   6 3.37  49 3.82
  58  0.964  0.429  0.644-  66 2.09  68 2.16  27 2.77  14 3.05  59 3.06  42 3.07  48 3.10  64 3.11
                             5 3.26  52 3.26
  59  0.140  0.623  0.635-  69 2.13  73 2.18  68 2.33  54 2.96  38 3.04  58 3.06  52 3.15   5 3.18
                            20 3.23  56 3.32  45 3.36  21 3.36
  60  0.147  0.092  0.451-  51 3.00  37 3.04  53 3.06  19 3.07   6 3.08  40 3.09  22 3.10  57 3.13
                            55 3.24  46 3.27  50 3.32  56 3.48
  61  0.731  0.606  0.367-   1 2.93  17 2.95   9 2.95  11 2.96  29 2.98  41 3.05  63 3.17  49 3.65

  62  0.738  0.125  0.538-  28 2.76  18 2.87  12 2.95   4 2.97  30 2.98   2 3.00  42 3.03   7 3.04
                            10 3.10  64 3.32   8 3.33  13 3.42  50 3.54
  63  0.869  0.592  0.458-  23 2.92  13 2.98   5 3.05  49 3.05   7 3.07  53 3.08  57 3.11  42 3.14
                            61 3.17  29 3.25  47 3.42  17 3.44  41 3.53
  64  0.861  0.141  0.641-  71 2.06  66 2.13  14 3.02  58 3.11   8 3.17  18 3.20  50 3.28  62 3.32
                            54 3.32  48 3.34  42 3.51
  65  0.381  0.882  0.631-  38 2.05  32 2.06  36 2.16  45 2.27  44 2.34
  66  0.982  0.235  0.677-  48 2.08  58 2.09  64 2.13
  67  0.258  0.127  0.634-  36 2.06  38 2.09  48 2.20  20 2.21  40 2.38
  68  0.978  0.651  0.657-  27 2.10  58 2.16  54 2.19  59 2.33
  69  0.270  0.539  0.665-  20 2.01  45 2.13  59 2.13
  70  0.403  0.292  0.668-  26 1.93  36 2.04  20 2.04
  71  0.739  0.044  0.668-   8 2.03  64 2.06  18 2.14
  72  0.527  0.054  0.668-  32 1.96  36 1.98  18 2.04
  73  0.138  0.823  0.673-  38 1.91  59 2.18  54 2.18
 
  LATTYP: Found a simple orthorhombic cell.
 ALAT       =     9.5644817352
 B/A-ratio  =     1.4398428730
 C/A-ratio  =     2.8922184390
  
  Lattice vectors:
  
 A1 = (   0.0000000000,  -9.5644817352,   0.0000000000)
 A2 = ( -13.7713508606,   0.0000000000,   0.0000000000)
 A3 = (   0.0000000000,   0.0000000000, -27.6625704340)


Analysis of symmetry for initial positions (statically):
=====================================================================
 Subroutine PRICEL returns:
 Original cell was already a primitive cell.
 

 Routine SETGRP: Setting up the symmetry group for a 
 simple orthorhombic supercell.


 Subroutine GETGRP returns: Found  1 space group operations
 (whereof  1 operations were pure point group operations)
 out of a pool of  8 trial point group operations.


The static configuration has the point symmetry C_1 .


Analysis of symmetry for dynamics (positions and initial velocities):
=====================================================================
 Subroutine PRICEL returns:
 Original cell was already a primitive cell.
 

 Routine SETGRP: Setting up the symmetry group for a 
 simple orthorhombic supercell.


 Subroutine GETGRP returns: Found  1 space group operations
 (whereof  1 operations were pure point group operations)
 out of a pool of  8 trial point group operations.


The dynamic configuration has the point symmetry C_1 .


Analysis of constrained symmetry for selective dynamics:
=====================================================================
 Subroutine PRICEL returns:
 Original cell was already a primitive cell.
 

 Routine SETGRP: Setting up the symmetry group for a 
 simple orthorhombic supercell.


 Subroutine GETGRP returns: Found  1 space group operations
 (whereof  1 operations were pure point group operations)
 out of a pool of  8 trial point group operations.


The constrained configuration has the point symmetry C_1 .


 Subroutine INISYM returns: Found  1 space group operations
 (whereof  1 operations are pure point group operations),
 and found     1 'primitive' translations

 
 
 KPOINTS: k-points                                

Automatic generation of k-mesh.
Space group operators:
 irot       det(A)        alpha          n_x          n_y          n_z        tau_x        tau_y        tau_z
    1     1.000000     0.000000     1.000000     0.000000     0.000000     0.000000     0.000000     0.000000
 
 Subroutine IBZKPT returns following result:
 ===========================================
 
 Found      5 irreducible k-points:
 
 Following reciprocal coordinates:
            Coordinates               Weight
  0.000000  0.000000  0.000000      1.000000
  0.333333  0.000000  0.000000      2.000000
  0.000000  0.333333  0.000000      2.000000
  0.333333  0.333333  0.000000      2.000000
 -0.333333  0.333333  0.000000      2.000000
 
 Following cartesian coordinates:
            Coordinates               Weight
  0.000000  0.000000  0.000000      1.000000
  0.024205  0.000000  0.000000      2.000000
  0.000000  0.034851  0.000000      2.000000
  0.024205  0.034851  0.000000      2.000000
 -0.024205  0.034851  0.000000      2.000000
 


--------------------------------------------------------------------------------------------------------




 Dimension of arrays:
   k-points           NKPTS =      5   k-points in BZ     NKDIM =      5   number of bands    NBANDS=    238
   number of dos      NEDOS =    301   number of ions     NIONS =     73
   non local maximal  LDIM  =      6   non local SUM 2l+1 LMDIM =     18
   total plane-waves  NPLWV = 846720
   max r-space proj   IRMAX =      1   max aug-charges    IRDMAX=  25433
   dimension x,y,z NGX =    84 NGY =   60 NGZ =  168
   dimension x,y,z NGXF=   168 NGYF=  120 NGZF=  336
   support grid    NGXF=   168 NGYF=  120 NGZF=  336
   ions per type =               6  10   4  18  26   9
 NGX,Y,Z   is equivalent  to a cutoff of  10.14, 10.43, 10.10 a.u.
 NGXF,Y,Z  is equivalent  to a cutoff of  20.28, 20.86, 20.19 a.u.


 I would recommend the setting:
   dimension x,y,z NGX =    83 NGY =   57 NGZ =  166
 SYSTEM =  (110) surface                           
 POSCAR =  Al Nb Ta Ti Zr                          

 Startparameter for this run:
   NWRITE =      2    write-flag & timer
   PREC   = normal    normal or accurate (medium, high low for compatibility)
   ISTART =      0    job   : 0-new  1-cont  2-samecut
   ICHARG =      2    charge: 1-file 2-atom 10-const
   ISPIN  =      1    spin polarized calculation?
   LNONCOLLINEAR =      F non collinear calculations
   LSORBIT =      F    spin-orbit coupling
   INIWAV =      1    electr: 0-lowe 1-rand  2-diag
   LASPH  =      F    aspherical Exc in radial PAW
   METAGGA=      F    non-selfconsistent MetaGGA calc.

 Electronic Relaxation 1
   ENCUT  =  600.0 eV  44.10 Ry    6.64 a.u.  27.50 19.10 55.25*2*pi/ulx,y,z
   ENINI  =  600.0     initial cutoff
   ENAUG  =  605.4 eV  augmentation charge cutoff
   NELM   =     60;   NELMIN=  2; NELMDL= -5     # of ELM steps 
   EDIFF  = 0.1E-03   stopping-criterion for ELM
   LREAL  =      F    real-space projection
   NLSPLINE    = F    spline interpolate recip. space projectors
   LCOMPAT=      F    compatible to vasp.4.4
   GGA_COMPAT  = T    GGA compatible to vasp.4.4-vasp.4.6
   LMAXPAW     = -100 max onsite density
   LMAXMIX     =    2 max onsite mixed and CHGCAR
   VOSKOWN=      0    Vosko Wilk Nusair interpolation
   ROPT   =    0.00000   0.00000   0.00000   0.00000
   ROPT   =    0.00000   0.00000
 Ionic relaxation
   EDIFFG = -.1E-01   stopping-criterion for IOM
   NSW    =    150    number of steps for IOM
   NBLOCK =      1;   KBLOCK =    150    inner block; outer block 
   IBRION =      2    ionic relax: 0-MD 1-quasi-New 2-CG
   NFREE  =      1    steps in history (QN), initial steepest desc. (CG)
   ISIF   =      2    stress and relaxation
   IWAVPR =     11    prediction:  0-non 1-charg 2-wave 3-comb
   ISYM   =      2    0-nonsym 1-usesym 2-fastsym
   LCORR  =      T    Harris-Foulkes like correction to forces

   POTIM  = 0.1000    time-step for ionic-motion
   TEIN   =    0.0    initial temperature
   TEBEG  =    0.0;   TEEND  =   0.0 temperature during run
   SMASS  =  -3.00    Nose mass-parameter (am)
   estimated Nose-frequenzy (Omega)   =  0.10E-29 period in steps =****** mass=  -0.433E-26a.u.
   SCALEE = 1.0000    scale energy and forces
   NPACO  =    256;   APACO  = 16.0  distance and # of slots for P.C.
   PSTRESS=    0.0 pullay stress

  Mass of Ions in am
   POMASS =  26.98 92.91180.95 47.88 91.22 16.00
  Ionic Valenz
   ZVAL   =   3.00 13.00  5.00  4.00  4.00  6.00
  Atomic Wigner-Seitz radii
   RWIGS  =  -1.00 -1.00 -1.00 -1.00 -1.00 -1.00
  virtual crystal weights 
   VCA    =   1.00  1.00  1.00  1.00  1.00  1.00
   NELECT =     398.0000    total number of electrons
   NUPDOWN=      -1.0000    fix difference up-down

 DOS related values:
   EMIN   =  10.00;   EMAX   =-10.00  energy-range for DOS
   EFERMI =   0.00
   ISMEAR =     2;   SIGMA  =   0.10  broadening in eV -4-tet -1-fermi 0-gaus

 Electronic relaxation 2 (details)
   IALGO  =     68    algorithm
   LDIAG  =      T    sub-space diagonalisation (order eigenvalues)
   LSUBROT=      F    optimize rotation matrix (better conditioning)
   TURBO    =      0    0=normal 1=particle mesh
   IRESTART =      0    0=no restart 2=restart with 2 vectors
   NREBOOT  =      0    no. of reboots
   NMIN     =      0    reboot dimension
   EREF     =   0.00    reference energy to select bands
   IMIX   =      4    mixing-type and parameters
     AMIX     =   0.40;   BMIX     =  1.00
     AMIX_MAG =   1.60;   BMIX_MAG =  1.00
     AMIN     =   0.10
     WC   =   100.;   INIMIX=   1;  MIXPRE=   1;  MAXMIX= -45

 Intra band minimization:
   WEIMIN = 0.0010     energy-eigenvalue tresh-hold
   EBREAK =  0.11E-06  absolut break condition
   DEPER  =   0.30     relativ break condition  

   TIME   =   0.40     timestep for ELM

  volume/ion in A,a.u.               =      49.91       336.82
  Fermi-wavevector in a.u.,A,eV,Ry     =   0.782574  1.478851  8.332518  0.612423
  Thomas-Fermi vector in A             =   1.886326
 
 Write flags
   LWAVE  =      F    write WAVECAR
   LCHARG =      F    write CHGCAR
   LVTOT  =      F    write LOCPOT, total local potential
   LVHAR  =      F    write LOCPOT, Hartree potential only
   LELF   =      F    write electronic localiz. function (ELF)
   LORBIT =      0    0 simple, 1 ext, 2 COOP (PROOUT)


 Dipole corrections
   LMONO  =      F    monopole corrections only (constant potential shift)
   LDIPOL =      F    correct potential (dipole corrections)
   IDIPOL =      0    1-x, 2-y, 3-z, 4-all directions 
   EPSILON=  1.0000000 bulk dielectric constant

 Exchange correlation treatment:
   GGA     =    --    GGA type
   LEXCH   =     8    internal setting for exchange type
   VOSKOWN=      0    Vosko Wilk Nusair interpolation
   LHFCALC =     F    Hartree Fock is set to
   LHFONE  =     F    Hartree Fock one center treatment
   AEXX    =    0.0000 exact exchange contribution

 Linear response parameters
   LEPSILON=     F    determine dielectric tensor
   LRPA    =     F    only Hartree local field effects (RPA)
   LNABLA  =     F    use nabla operator in PAW spheres
   LVEL    =     F    velocity operator in full k-point grid
   LINTERFAST=   F  fast interpolation
   KINTER  =     0    interpolate to denser k-point grid
   CSHIFT  =0.1000    complex shift for real part using Kramers Kronig
   OMEGAMAX=  -1.0    maximum frequency
   DEG_THRESHOLD= 0.2000000E-02 threshold for treating states as degnerate
   RTIME   =    0.100 relaxation time in fs

 Orbital magnetization related:
   ORBITALMAG=     F  switch on orbital magnetization
   LCHIMAG   =     F  perturbation theory with respect to B field
   DQ        =  0.001000  dq finite difference perturbation B field



--------------------------------------------------------------------------------------------------------


 conjugate gradient relaxation of ions
   using selective dynamics as specified on POSCAR
 charge density and potential will be updated during run
 non-spin polarized calculation
 RMM-DIIS sequential band-by-band and
  variant of blocked Davidson during initial phase
 perform sub-space diagonalisation
    before iterative eigenvector-optimisation
 modified Broyden-mixing scheme, WC =      100.0
 initial mixing is a Kerker type mixing with AMIX =  0.4000 and BMIX =      1.0000
 Hartree-type preconditioning will be used
 using additional bands           39
 reciprocal scheme for non local part
 use partial core corrections
 calculate Harris-corrections to forces 
   (improved forces if not selfconsistent)
 use gradient corrections 
 use of overlap-Matrix (Vanderbilt PP)
 Methfessel and Paxton  Order N= 2 SIGMA  =   0.10


--------------------------------------------------------------------------------------------------------


  energy-cutoff  :      600.00
  volume of cell :     3643.60
      direct lattice vectors                 reciprocal lattice vectors
    13.771350861  0.000000000  0.000000000     0.072614518  0.000000000  0.000000000
     0.000000000  9.564481735  0.000000000     0.000000000  0.104553496  0.000000000
     0.000000000  0.000000000 27.662570434     0.000000000  0.000000000  0.036149931

  length of vectors
    13.771350861  9.564481735 27.662570434     0.072614518  0.104553496  0.036149931


 
 k-points in units of 2pi/SCALE and weight: k-points                                
   0.00000000  0.00000000  0.00000000       0.111
   0.02420484  0.00000000  0.00000000       0.222
   0.00000000  0.03485117  0.00000000       0.222
   0.02420484  0.03485117  0.00000000       0.222
  -0.02420484  0.03485117  0.00000000       0.222
 
 k-points in reciprocal lattice and weights: k-points                                
   0.00000000  0.00000000  0.00000000       0.111
   0.33333333  0.00000000  0.00000000       0.222
   0.00000000  0.33333333  0.00000000       0.222
   0.33333333  0.33333333  0.00000000       0.222
  -0.33333333  0.33333333  0.00000000       0.222
 
 position of ions in fractional coordinates (direct lattice) 
   0.62276447  0.86746430  0.37590333
   0.62362104  0.39033496  0.54737458
   0.61464574  0.62843459  0.62396068
   0.61839700  0.08363760  0.44965952
   0.98211706  0.64006270  0.55144953
   0.97963780  0.12056648  0.37767599
   0.72857308  0.34338307  0.45816820
   0.72383527  0.87891244  0.62310855
   0.51739597  0.60805875  0.36719826
   0.51282397  0.13536602  0.54169272
   0.61811078  0.34297293  0.36889183
   0.61694584  0.87097779  0.53769023
   0.74231148  0.84345710  0.46199300
   0.74590442  0.40656097  0.62778346
   0.39405298  0.84738672  0.36896032
   0.39013485  0.36956388  0.54571567
   0.61928761  0.60162497  0.45752798
   0.63008302  0.14888887  0.62639875
   0.27944195  0.83362269  0.45088327
   0.28159884  0.35456716  0.63108429
   0.27807291  0.59296907  0.53579015
   0.28324246  0.07725573  0.36149931
   0.73723066  0.63510558  0.53944259
   0.74002355  0.11549973  0.36646499
   0.49591756  0.83582580  0.45790018
   0.50178986  0.38061841  0.62892189
   0.83808900  0.64865610  0.62653755
   0.84724605  0.11017048  0.45460239
   0.85243583  0.34907103  0.37639265
   0.85394887  0.86603987  0.55297979
   0.52175105  0.33942658  0.46105252
   0.53022544  0.88333017  0.62815866
   0.49602926  0.62313188  0.53767977
   0.49943882  0.10200214  0.36464270
   0.40016663  0.58028412  0.45130253
   0.40664171  0.10551552  0.63253194
   0.25505811  0.36595738  0.46399110
   0.23311296  0.91120224  0.63313211
   0.25182599  0.61397660  0.37627308
   0.25144848  0.13893786  0.54847659
   0.86539888  0.85904646  0.37036829
   0.86466005  0.38329492  0.54563757
   0.38059813  0.35186696  0.37331264
   0.37758566  0.87413834  0.54608763
   0.38282652  0.64565118  0.62706827
   0.38408008  0.10357511  0.45579618
   0.11657381  0.61110574  0.46457054
   0.10183008  0.17413527  0.63570260
   0.99629861  0.59295863  0.36811234
   0.99453099  0.11349996  0.54312058
   0.11869311  0.87196302  0.37467704
   0.11736274  0.39408043  0.55444170
   0.99977952  0.33051389  0.45306987
   0.00574931  0.86462801  0.63264284
   0.14482272  0.33176249  0.36788561
   0.13803303  0.84656506  0.54356918
   0.97888047  0.87608504  0.46520830
   0.96425318  0.42906093  0.64362321
   0.13983837  0.62289669  0.63543295
   0.14721048  0.09173214  0.45072276
   0.73135245  0.60578495  0.36679988
   0.73792876  0.12507145  0.53801491
   0.86923259  0.59196168  0.45825814
   0.86085875  0.14064999  0.64097326
   0.38052033  0.88242766  0.63052378
   0.98192190  0.23463950  0.67656367
   0.25812735  0.12661315  0.63438639
   0.97758752  0.65063044  0.65684558
   0.27037287  0.53938693  0.66485358
   0.40287492  0.29234970  0.66787911
   0.73897327  0.04434078  0.66842091
   0.52655557  0.05382642  0.66766316
   0.13843034  0.82279617  0.67303710
 
 position of ions in cartesian coordinates  (Angst):
   8.57630799  8.29684649 10.39845223
   8.58810416  3.73335162 15.14178786
   8.46450218  6.01065111 17.26035616
   8.51616202  0.79995025 12.43873821
  13.52507861  6.12186799 15.25451149
  13.49093588  1.15315590 10.44748880
  10.03343557  3.28428114 12.67411000
   9.96818952  8.40634200 17.23678413
   7.12524148  5.81576681 10.15764776
   7.06227887  1.29470584 14.98461300
   8.51222037  3.28035836 10.20449636
   8.49617767  8.33045115 14.87389398
  10.22263181  8.06723005 12.77991378
  10.27211149  3.88854495 17.36610417
   5.42664188  8.10481479 10.20639088
   5.37268388  3.53468694 15.09589807
   8.52842696  5.75423100 12.65640004
   8.67709434  1.42404490 17.32779963
   3.84829318  7.97316903 12.47259035
   3.87799648  3.39125115 17.45741364
   3.82943958  5.67144186 14.82133266
   3.90063135  0.73891098 10.00000000
  10.15266208  6.07445574 14.92236860
  10.19112400  1.10469510 10.13736353
   6.82945470  7.99424061 12.66669595
   6.91032418  3.64041788 17.39759604
  11.54161766  6.20405942 17.33163923
  11.66772263  1.05372358 12.57547056
  11.73919286  3.33868345 10.41198829
  11.76002951  8.28322247 15.29684229
   7.18521672  3.24643930 12.75389771
   7.30192063  8.44859527 17.37648325
   6.83099301  5.95993346 14.87360452
   6.87794726  0.97559764 10.08695433
   5.51083508  5.55011685 12.48418803
   5.60000567  1.00920127 17.49745933
   3.51249472  3.50019267 12.83518635
   3.21028038  8.71517719 17.51406161
   3.46798404  5.87236796 10.40868071
   3.46278526  1.32886866 15.17227235
  11.91771166  8.21633417 10.24533883
  11.90753690  3.66601722 15.09373762
   5.24135036  3.36542512 10.32678719
   5.19986455  8.36068020 15.10618747
   5.27203830  6.17531890 17.34632027
   5.28930157  0.99064225 12.60849381
   1.60537885  5.84490969 12.85121538
   1.40233771  1.66551360 17.58516800
  13.72037774  5.67134198 10.18293350
  13.69603526  1.08556827 15.02411128
   1.63456451  8.33987442 10.36453009
   1.61624345  3.76917507 15.33728245
  13.76831459  3.16119411 12.53307716
   0.07917575  8.26971883 17.50052711
   1.99440444  3.17313630 10.17666150
   1.90090124  8.09695602 15.03652067
  13.48050634  8.37929939 12.86885734
  13.27906884  4.10374543 17.80427238
   1.92576323  5.95768402 17.57770877
   2.02728715  0.87737042 12.46815015
  10.07171117  5.79401911 10.14662739
  10.16227588  1.19624363 14.88287539
  11.97050705  5.66180669 12.67659812
  11.85518789  1.34524422 17.73096800
   5.24027897  8.43996322 17.44190839
  13.52239094  2.24420522 18.71549018
   3.55476227  1.21098917 17.54875828
  13.46270067  6.22294294 18.17003705
   3.72339963  5.15895640 18.39155904
   5.54813185  2.79617340 18.47525293
  10.17666023  0.42409661 18.49024043
   7.25138146  0.51482182 18.46927918
   1.90637278  7.86961894 18.61793628
 


--------------------------------------------------------------------------------------------------------


 k-point  1 :   0.0000 0.0000 0.0000  plane waves:  121663
 k-point  2 :   0.3333 0.0000 0.0000  plane waves:  121577
 k-point  3 :   0.0000 0.3333 0.0000  plane waves:  121622
 k-point  4 :   0.3333 0.3333 0.0000  plane waves:  121647
 k-point  5 :  -0.3333 0.3333 0.0000  plane waves:  121647

 maximum and minimum number of plane-waves per node :      2568     2510

 maximum number of plane-waves:    121663
 maximum index in each direction: 
   IXMAX=   27   IYMAX=   19   IZMAX=   55
   IXMIN=  -27   IYMIN=  -19   IZMIN=  -55

 WARNING: aliasing errors must be expected set NGX to 110 to avoid them
 WARNING: aliasing errors must be expected set NGY to  78 to avoid them
 WARNING: aliasing errors must be expected set NGZ to 222 to avoid them
 aliasing errors are usually negligible using standard VASP settings
 and one can safely disregard these warnings

 parallel 3D FFT for wavefunctions:
    minimum data exchange during FFTs selected (reduces bandwidth)
 parallel 3D FFT for charge:
    minimum data exchange during FFTs selected (reduces bandwidth)


 total amount of memory used by VASP on root node    79631. kBytes
========================================================================

   base      :      30000. kBytes
   nonl-proj :      13917. kBytes
   fftplans  :       3278. kBytes
   grid      :       7939. kBytes
   one-center:         31. kBytes
   wavefun   :      24466. kBytes
 
     INWAV:  cpu time    0.0000: real time    0.0000
 Broyden mixing: mesh for mixing (old mesh)
   NGX = 55   NGY = 39   NGZ =111
  (NGX  =168   NGY  =120   NGZ  =336)
  gives a total of 238095 points

 initial charge density was supplied:
 charge density of overlapping atoms calculated
 number of electron     398.0000000 magnetization 
 keeping initial charge density in first step


--------------------------------------------------------------------------------------------------------


 Maximum index for augmentation-charges         1033 (set IRDMAX)


--------------------------------------------------------------------------------------------------------


 First call to EWALD:  gamma=   0.115
 Maximum number of real-space cells 3x 4x 2
 Maximum number of reciprocal cells 3x 2x 5

 FEWALD executed in parallel
    FEWALD:  cpu time    0.0023: real time    0.0023


----------------------------------------- Iteration    1(   1)  ---------------------------------------


    POTLOK:  cpu time    0.0641: real time    0.0697
    SETDIJ:  cpu time    0.0120: real time    0.0149
     EDDAV:  cpu time    9.7564: real time    9.7944
       DOS:  cpu time    0.0015: real time    0.0015
    --------------------------------------------
      LOOP:  cpu time    9.8360: real time    9.9061

 eigenvalue-minimisations  :  2500
 total energy-change (2. order) : 0.4773004E+04  (-0.1477447E+05)
 number of electron     398.0000000 magnetization 
 augmentation part      398.0000000 magnetization 

 Free energy of the ion-electron system (eV)
  ---------------------------------------------------
  alpha Z        PSCENC =       610.00112950
  Ewald energy   TEWEN  =     84618.75642642
  -Hartree energ DENC   =   -106201.08559100
  -exchange      EXHF   =         0.00000000
  -V(xc)+E(xc)   XCENC  =     -2838.81496352
  PAW double counting   =     22558.22641518   -18483.18067192
  entropy T*S    EENTRO =        -0.00315109
  eigenvalues    EBANDS =       491.84412848
  atomic energy  EATOM  =     24017.26038472
  Solvation  Ediel_sol  =         0.00000000
  ---------------------------------------------------
  free energy    TOTEN  =      4773.00410676 eV

  energy without entropy =     4773.00725784  energy(sigma->0) =     4773.00489453


--------------------------------------------------------------------------------------------------------




----------------------------------------- Iteration    1(   2)  ---------------------------------------


     EDDAV:  cpu time   10.0266: real time   10.0327
       DOS:  cpu time    0.0014: real time    0.0014
    --------------------------------------------
      LOOP:  cpu time   10.0295: real time   10.0417

 eigenvalue-minimisations  :  2598
 total energy-change (2. order) :-0.4232303E+04  (-0.4112718E+04)
 number of electron     398.0000000 magnetization 
 augmentation part      398.0000000 magnetization 

 Free energy of the ion-electron system (eV)
  ---------------------------------------------------
  alpha Z        PSCENC =       610.00112950
  Ewald energy   TEWEN  =     84618.75642642
  -Hartree energ DENC   =   -106201.08559100
  -exchange      EXHF   =         0.00000000
  -V(xc)+E(xc)   XCENC  =     -2838.81496352
  PAW double counting   =     22558.22641518   -18483.18067192
  entropy T*S    EENTRO =        -0.00206121
  eigenvalues    EBANDS =     -3740.45993504
  atomic energy  EATOM  =     24017.26038472
  Solvation  Ediel_sol  =         0.00000000
  ---------------------------------------------------
  free energy    TOTEN  =       540.70113312 eV

  energy without entropy =      540.70319433  energy(sigma->0) =      540.70164842


--------------------------------------------------------------------------------------------------------




----------------------------------------- Iteration    1(   3)  ---------------------------------------


     EDDAV:  cpu time   15.1356: real time   15.1400
       DOS:  cpu time    0.0014: real time    0.0014
    --------------------------------------------
      LOOP:  cpu time   15.1384: real time   15.1495

 eigenvalue-minimisations  :  4352
 total energy-change (2. order) :-0.1056034E+04  (-0.1024962E+04)
 number of electron     398.0000000 magnetization 
 augmentation part      398.0000000 magnetization 

 Free energy of the ion-electron system (eV)
  ---------------------------------------------------
  alpha Z        PSCENC =       610.00112950
  Ewald energy   TEWEN  =     84618.75642642
  -Hartree energ DENC   =   -106201.08559100
  -exchange      EXHF   =         0.00000000
  -V(xc)+E(xc)   XCENC  =     -2838.81496352
  PAW double counting   =     22558.22641518   -18483.18067192
  entropy T*S    EENTRO =        -0.00753235
  eigenvalues    EBANDS =     -4796.48884912
  atomic energy  EATOM  =     24017.26038472
  Solvation  Ediel_sol  =         0.00000000
  ---------------------------------------------------
  free energy    TOTEN  =      -515.33325210 eV

  energy without entropy =     -515.32571975  energy(sigma->0) =     -515.33136902


--------------------------------------------------------------------------------------------------------




----------------------------------------- Iteration    1(   4)  ---------------------------------------


     EDDAV:  cpu time   13.4092: real time   13.4122
       DOS:  cpu time    0.0015: real time    0.0015
    --------------------------------------------
      LOOP:  cpu time   13.4118: real time   13.4210

 eigenvalue-minimisations  :  3752
 total energy-change (2. order) :-0.1529964E+03  (-0.1477978E+03)
 number of electron     398.0000000 magnetization 
 augmentation part      398.0000000 magnetization 

 Free energy of the ion-electron system (eV)
  ---------------------------------------------------
  alpha Z        PSCENC =       610.00112950
  Ewald energy   TEWEN  =     84618.75642642
  -Hartree energ DENC   =   -106201.08559100
  -exchange      EXHF   =         0.00000000
  -V(xc)+E(xc)   XCENC  =     -2838.81496352
  PAW double counting   =     22558.22641518   -18483.18067192
  entropy T*S    EENTRO =         0.00149393
  eigenvalues    EBANDS =     -4949.49431393
  atomic energy  EATOM  =     24017.26038472
  Solvation  Ediel_sol  =         0.00000000
  ---------------------------------------------------
  free energy    TOTEN  =      -668.32969064 eV

  energy without entropy =     -668.33118456  energy(sigma->0) =     -668.33006412


--------------------------------------------------------------------------------------------------------




----------------------------------------- Iteration    1(   5)  ---------------------------------------


     EDDAV:  cpu time   15.3916: real time   15.3974
       DOS:  cpu time    0.0015: real time    0.0015
    CHARGE:  cpu time    0.2221: real time    0.2238
    MIXING:  cpu time    0.0050: real time    0.0063
    --------------------------------------------
      LOOP:  cpu time   15.6213: real time   15.6363

 eigenvalue-minimisations  :  4440
 total energy-change (2. order) :-0.1633635E+02  (-0.1591689E+02)
 number of electron     398.0000029 magnetization 
 augmentation part       47.3746080 magnetization 

 Broyden mixing:
  rms(total) = 0.70794E+01    rms(broyden)= 0.70793E+01
  rms(prec ) = 0.75766E+01
  weight for this iteration     100.00

 Free energy of the ion-electron system (eV)
  ---------------------------------------------------
  alpha Z        PSCENC =       610.00112950
  Ewald energy   TEWEN  =     84618.75642642
  -Hartree energ DENC   =   -106201.08559100
  -exchange      EXHF   =         0.00000000
  -V(xc)+E(xc)   XCENC  =     -2838.81496352
  PAW double counting   =     22558.22641518   -18483.18067192
  entropy T*S    EENTRO =        -0.00243940
  eigenvalues    EBANDS =     -4965.82673430
  atomic energy  EATOM  =     24017.26038472
  Solvation  Ediel_sol  =         0.00000000
  ---------------------------------------------------
  free energy    TOTEN  =      -684.66604434 eV

  energy without entropy =     -684.66360494  energy(sigma->0) =     -684.66543449


--------------------------------------------------------------------------------------------------------




----------------------------------------- Iteration    1(   6)  ---------------------------------------


    POTLOK:  cpu time    0.0494: real time    0.0494
    SETDIJ:  cpu time    0.0065: real time    0.0065
    EDDIAG:  cpu time    0.9017: real time    0.9111
  RMM-DIIS:  cpu time    9.5852: real time    9.5862
    ORTHCH:  cpu time    0.2592: real time    0.2613
       DOS:  cpu time    0.0014: real time    0.0014
    CHARGE:  cpu time    0.2190: real time    0.2190
    MIXING:  cpu time    0.0030: real time    0.0060
    --------------------------------------------
      LOOP:  cpu time   11.0274: real time   11.0496

 eigenvalue-minimisations  :  3773
 total energy-change (2. order) :-0.4009752E+02  (-0.1504052E+03)
 number of electron     398.0000016 magnetization 
 augmentation part       61.9724926 magnetization 

 Broyden mixing:
  rms(total) = 0.44041E+01    rms(broyden)= 0.44039E+01
  rms(prec ) = 0.57776E+01
  weight for this iteration     100.00

 eigenvalues of (default mixing * dielectric matrix)
  average eigenvalue GAMMA=   0.7721
  0.7721

 Free energy of the ion-electron system (eV)
  ---------------------------------------------------
  alpha Z        PSCENC =       610.00112950
  Ewald energy   TEWEN  =     84618.75642642
  -Hartree energ DENC   =   -106967.47983810
  -exchange      EXHF   =         0.00000000
  -V(xc)+E(xc)   XCENC  =     -2814.49775414
  PAW double counting   =     26705.94014444   -22634.99905990
  entropy T*S    EENTRO =         0.02608493
  eigenvalues    EBANDS =     -4259.77108251
  atomic energy  EATOM  =     24017.26038472
  Solvation  Ediel_sol  =         0.00000000
  ---------------------------------------------------
  free energy    TOTEN  =      -724.76356465 eV

  energy without entropy =     -724.78964958  energy(sigma->0) =     -724.77008588


--------------------------------------------------------------------------------------------------------




----------------------------------------- Iteration    1(   7)  ---------------------------------------


    POTLOK:  cpu time    0.0487: real time    0.0487
    SETDIJ:  cpu time    0.0063: real time    0.0063
    EDDIAG:  cpu time    0.8924: real time    0.8977
  RMM-DIIS:  cpu time    7.4354: real time    7.4355
    ORTHCH:  cpu time    0.2591: real time    0.2613
       DOS:  cpu time    0.0015: real time    0.0015
    CHARGE:  cpu time    0.2210: real time    0.2210
    MIXING:  cpu time    0.0021: real time    0.0026
    --------------------------------------------
      LOOP:  cpu time    8.8679: real time    8.8826

 eigenvalue-minimisations  :  2911
 total energy-change (2. order) : 0.5474954E+02  (-0.3353138E+02)
 number of electron     398.0000023 magnetization 
 augmentation part       56.8375837 magnetization 

 Broyden mixing:
  rms(total) = 0.37917E+01    rms(broyden)= 0.37917E+01
  rms(prec ) = 0.63619E+01
  weight for this iteration     100.00

 eigenvalues of (default mixing * dielectric matrix)
  average eigenvalue GAMMA=   0.7006
  1.0464  0.3548

 Free energy of the ion-electron system (eV)
  ---------------------------------------------------
  alpha Z        PSCENC =       610.00112950
  Ewald energy   TEWEN  =     84618.75642642
  -Hartree energ DENC   =   -106494.48643707
  -exchange      EXHF   =         0.00000000
  -V(xc)+E(xc)   XCENC  =     -2817.81051991
  PAW double counting   =     27317.19274049   -23258.35976309
  entropy T*S    EENTRO =         0.00024194
  eigenvalues    EBANDS =     -4662.56823119
  atomic energy  EATOM  =     24017.26038472
  Solvation  Ediel_sol  =         0.00000000
  ---------------------------------------------------
  free energy    TOTEN  =      -670.01402819 eV

  energy without entropy =     -670.01427013  energy(sigma->0) =     -670.01408868


--------------------------------------------------------------------------------------------------------




----------------------------------------- Iteration    1(   8)  ---------------------------------------


    POTLOK:  cpu time    0.0487: real time    0.0487
    SETDIJ:  cpu time    0.0063: real time    0.0063
    EDDIAG:  cpu time    0.9027: real time    0.9055
  RMM-DIIS:  cpu time    9.4953: real time    9.4953
    ORTHCH:  cpu time    0.2588: real time    0.2609
       DOS:  cpu time    0.0015: real time    0.0015
    CHARGE:  cpu time    0.2195: real time    0.2195
    MIXING:  cpu time    0.0020: real time    0.0020
    --------------------------------------------
      LOOP:  cpu time   10.9361: real time   10.9473

 eigenvalue-minimisations  :  3732
 total energy-change (2. order) : 0.1572468E+02  (-0.1918881E+02)
 number of electron     398.0000022 magnetization 
 augmentation part       51.9240811 magnetization 

 Broyden mixing:
  rms(total) = 0.32650E+01    rms(broyden)= 0.32650E+01
  rms(prec ) = 0.55724E+01
  weight for this iteration     100.00

 eigenvalues of (default mixing * dielectric matrix)
  average eigenvalue GAMMA=   0.6534
  1.3062  0.4374  0.2164

 Free energy of the ion-electron system (eV)
  ---------------------------------------------------
  alpha Z        PSCENC =       610.00112950
  Ewald energy   TEWEN  =     84618.75642642
  -Hartree energ DENC   =   -106687.73578189
  -exchange      EXHF   =         0.00000000
  -V(xc)+E(xc)   XCENC  =     -2818.17681708
  PAW double counting   =     28152.78604584   -24096.60967581
  entropy T*S    EENTRO =        -0.01240531
  eigenvalues    EBANDS =     -4450.55865573
  atomic energy  EATOM  =     24017.26038472
  Solvation  Ediel_sol  =         0.00000000
  ---------------------------------------------------
  free energy    TOTEN  =      -654.28934935 eV

  energy without entropy =     -654.27694404  energy(sigma->0) =     -654.28624802


--------------------------------------------------------------------------------------------------------




----------------------------------------- Iteration    1(   9)  ---------------------------------------


    POTLOK:  cpu time    0.0484: real time    0.0484
    SETDIJ:  cpu time    0.0063: real time    0.0063
    EDDIAG:  cpu time    0.9148: real time    0.9168
  RMM-DIIS:  cpu time    8.7388: real time    8.7389
    ORTHCH:  cpu time    0.2605: real time    0.2613
       DOS:  cpu time    0.0015: real time    0.0015
    CHARGE:  cpu time    0.2194: real time    0.2194
    MIXING:  cpu time    0.0022: real time    0.0025
    --------------------------------------------
      LOOP:  cpu time   10.1934: real time   10.2043

 eigenvalue-minimisations  :  3440
 total energy-change (2. order) : 0.4663167E+02  (-0.6456774E+01)
 number of electron     398.0000021 magnetization 
 augmentation part       51.3484735 magnetization 

 Broyden mixing:
  rms(total) = 0.18896E+01    rms(broyden)= 0.18896E+01
  rms(prec ) = 0.21723E+01
  weight for this iteration     100.00

 eigenvalues of (default mixing * dielectric matrix)
  average eigenvalue GAMMA=   0.6760
  1.5836  0.4657  0.4657  0.1888

 Free energy of the ion-electron system (eV)
  ---------------------------------------------------
  alpha Z        PSCENC =       610.00112950
  Ewald energy   TEWEN  =     84618.75642642
  -Hartree energ DENC   =   -106694.09112898
  -exchange      EXHF   =         0.00000000
  -V(xc)+E(xc)   XCENC  =     -2815.91652191
  PAW double counting   =     28946.60875602   -24886.04569526
  entropy T*S    EENTRO =        -0.01727083
  eigenvalues    EBANDS =     -4404.21375968
  atomic energy  EATOM  =     24017.26038472
  Solvation  Ediel_sol  =         0.00000000
  ---------------------------------------------------
  free energy    TOTEN  =      -607.65768001 eV

  energy without entropy =     -607.64040918  energy(sigma->0) =     -607.65336230


--------------------------------------------------------------------------------------------------------




----------------------------------------- Iteration    1(  10)  ---------------------------------------


    POTLOK:  cpu time    0.0488: real time    0.0488
    SETDIJ:  cpu time    0.0063: real time    0.0063
    EDDIAG:  cpu time    0.9074: real time    0.9126
  RMM-DIIS:  cpu time    8.6988: real time    8.6989
    ORTHCH:  cpu time    0.2607: real time    0.2617
       DOS:  cpu time    0.0016: real time    0.0016
    CHARGE:  cpu time    0.2211: real time    0.2211
    MIXING:  cpu time    0.0022: real time    0.0022
    --------------------------------------------
      LOOP:  cpu time   10.1483: real time   10.1617

 eigenvalue-minimisations  :  3433
 total energy-change (2. order) : 0.7332816E+01  (-0.3455020E+01)
 number of electron     398.0000022 magnetization 
 augmentation part       54.4324959 magnetization 

 Broyden mixing:
  rms(total) = 0.10359E+01    rms(broyden)= 0.10359E+01
  rms(prec ) = 0.12689E+01
  weight for this iteration     100.00

 eigenvalues of (default mixing * dielectric matrix)
  average eigenvalue GAMMA=   0.7076
  1.7956  0.6128  0.6128  0.3331  0.1838

 Free energy of the ion-electron system (eV)
  ---------------------------------------------------
  alpha Z        PSCENC =       610.00112950
  Ewald energy   TEWEN  =     84618.75642642
  -Hartree energ DENC   =   -106738.48473049
  -exchange      EXHF   =         0.00000000
  -V(xc)+E(xc)   XCENC  =     -2811.68986273
  PAW double counting   =     29636.00668968   -25569.07805584
  entropy T*S    EENTRO =         0.00681448
  eigenvalues    EBANDS =     -4363.10365931
  atomic energy  EATOM  =     24017.26038472
  Solvation  Ediel_sol  =         0.00000000
  ---------------------------------------------------
  free energy    TOTEN  =      -600.32486356 eV

  energy without entropy =     -600.33167805  energy(sigma->0) =     -600.32656718


--------------------------------------------------------------------------------------------------------




----------------------------------------- Iteration    1(  11)  ---------------------------------------


    POTLOK:  cpu time    0.0490: real time    0.0490
    SETDIJ:  cpu time    0.0063: real time    0.0063
    EDDIAG:  cpu time    0.9111: real time    0.9135
  RMM-DIIS:  cpu time    9.3892: real time    9.3892
    ORTHCH:  cpu time    0.2506: real time    0.2608
       DOS:  cpu time    0.0016: real time    0.0016
    CHARGE:  cpu time    0.2190: real time    0.2190
    MIXING:  cpu time    0.0023: real time    0.0023
    --------------------------------------------
      LOOP:  cpu time   10.8304: real time   10.8486

 eigenvalue-minimisations  :  3708
 total energy-change (2. order) :-0.1235979E+01  (-0.2831451E+01)
 number of electron     398.0000022 magnetization 
 augmentation part       55.3497677 magnetization 

 Broyden mixing:
  rms(total) = 0.10962E+01    rms(broyden)= 0.10961E+01
  rms(prec ) = 0.14750E+01
  weight for this iteration     100.00

 eigenvalues of (default mixing * dielectric matrix)
  average eigenvalue GAMMA=   0.6737
  1.8541  0.7471  0.6197  0.3745  0.1838  0.2632

 Free energy of the ion-electron system (eV)
  ---------------------------------------------------
  alpha Z        PSCENC =       610.00112950
  Ewald energy   TEWEN  =     84618.75642642
  -Hartree energ DENC   =   -106792.34197071
  -exchange      EXHF   =         0.00000000
  -V(xc)+E(xc)   XCENC  =     -2809.04492855
  PAW double counting   =     30268.61436862   -26198.08014992
  entropy T*S    EENTRO =        -0.00251254
  eigenvalues    EBANDS =     -4316.72359021
  atomic energy  EATOM  =     24017.26038472
  Solvation  Ediel_sol  =         0.00000000
  ---------------------------------------------------
  free energy    TOTEN  =      -601.56084268 eV

  energy without entropy =     -601.55833013  energy(sigma->0) =     -601.56021454


--------------------------------------------------------------------------------------------------------




----------------------------------------- Iteration    1(  12)  ---------------------------------------


    POTLOK:  cpu time    0.0489: real time    0.0489
    SETDIJ:  cpu time    0.0064: real time    0.0064
    EDDIAG:  cpu time    0.9154: real time    0.9176
  RMM-DIIS:  cpu time    9.2908: real time    9.2909
    ORTHCH:  cpu time    0.2571: real time    0.2613
       DOS:  cpu time    0.0015: real time    0.0015
    CHARGE:  cpu time    0.2193: real time    0.2193
    MIXING:  cpu time    0.0024: real time    0.0024
    --------------------------------------------
      LOOP:  cpu time   10.7434: real time   10.7569

 eigenvalue-minimisations  :  3663
 total energy-change (2. order) : 0.2694713E+01  (-0.1014628E+01)
 number of electron     398.0000022 magnetization 
 augmentation part       55.1683331 magnetization 

 Broyden mixing:
  rms(total) = 0.56561E+00    rms(broyden)= 0.56561E+00
  rms(prec ) = 0.75216E+00
  weight for this iteration     100.00

 eigenvalues of (default mixing * dielectric matrix)
  average eigenvalue GAMMA=   0.6666
  1.9250  0.9620  0.5036  0.5036  0.3604  0.1854  0.2263

 Free energy of the ion-electron system (eV)
  ---------------------------------------------------
  alpha Z        PSCENC =       610.00112950
  Ewald energy   TEWEN  =     84618.75642642
  -Hartree energ DENC   =   -106821.27861036
  -exchange      EXHF   =         0.00000000
  -V(xc)+E(xc)   XCENC  =     -2808.13003367
  PAW double counting   =     30499.69671114   -26427.25187177
  entropy T*S    EENTRO =        -0.00073891
  eigenvalues    EBANDS =     -4287.91952701
  atomic energy  EATOM  =     24017.26038472
  Solvation  Ediel_sol  =         0.00000000
  ---------------------------------------------------
  free energy    TOTEN  =      -598.86612994 eV

  energy without entropy =     -598.86539104  energy(sigma->0) =     -598.86594522


--------------------------------------------------------------------------------------------------------




[...]
  E(xc)   -1718.03110 -1719.04062 -1707.89050    -0.34781    -0.77538     1.13640
  Local  ************************194156.27853  1460.40261  -315.16981  -326.32647
  n-local  -205.51912  -205.07568  -242.39171     8.92506     2.50755    -0.18007
  augment   494.76710   495.10023   492.71980    -1.55392    -0.37864     0.25805
  Kinetic  5224.45715  5219.47319  5275.79534   -12.50514     0.17024    -0.65474
  Fock        0.00000     0.00000     0.00000     0.00000     0.00000     0.00000
  -------------------------------------------------------------------------------------
  Total     -34.60008   -20.13748   -16.26580    -4.83891     5.43475    -1.26430
  in kB     -15.21448    -8.85493    -7.15246    -2.12778     2.38979    -0.55594
  external pressure =      -10.41 kB  Pullay stress =        0.00 kB


 VOLUME and BASIS-vectors are now :
 -----------------------------------------------------------------------------
  energy-cutoff  :      600.00
  volume of cell :     3643.60
      direct lattice vectors                 reciprocal lattice vectors
    13.771350861  0.000000000  0.000000000     0.072614518  0.000000000  0.000000000
     0.000000000  9.564481735  0.000000000     0.000000000  0.104553496  0.000000000
     0.000000000  0.000000000 27.662570434     0.000000000  0.000000000  0.036149931

  length of vectors
    13.771350861  9.564481735 27.662570434     0.072614518  0.104553496  0.036149931


 FORCES acting on ions
    electron-ion (+dipol)            ewald-force                    non-local-force                 convergence-correction
 -----------------------------------------------------------------------------------------------
   -.478E+02 -.340E+02 0.415E+03   0.477E+02 0.338E+02 -.414E+03   0.772E-01 0.937E-01 -.788E+00   0.154E-01 0.229E-01 -.127E-01
   -.249E+02 -.383E+02 -.791E+02   0.251E+02 0.380E+02 0.791E+02   -.176E+00 0.288E+00 0.248E-01   -.976E-03 -.657E-03 -.166E-01
   0.281E+02 0.295E+02 -.337E+03   -.277E+02 -.292E+02 0.336E+03   -.399E+00 -.368E+00 0.912E+00   -.382E-02 -.351E-03 -.546E-02
   -.897E-01 0.462E+01 0.240E+03   0.744E-01 -.446E+01 -.240E+03   -.476E-01 -.256E+00 -.645E+00   0.152E-01 0.595E-02 -.404E-01
   -.511E+02 0.805E+01 -.323E+02   0.510E+02 -.775E+01 0.319E+02   0.956E-01 -.292E+00 0.348E+00   -.463E-02 -.123E-02 -.359E-02
   -.450E+02 0.460E+01 0.358E+03   0.443E+02 -.399E+01 -.356E+03   0.651E+00 -.102E+01 -.225E+01   -.386E-01 0.217E-02 -.151E-01
   -.376E+03 -.661E+01 0.648E+03   0.376E+03 0.745E+01 -.649E+03   0.174E+00 -.316E+00 0.928E+00   -.331E-01 -.561E-01 -.159E+00
   -.284E+03 0.234E+03 -.135E+04   0.283E+03 -.232E+03 0.135E+04   0.972E+00 -.141E+01 0.310E+01   -.343E-01 0.932E-02 -.215E-01
   0.964E+02 -.733E+01 0.177E+04   -.961E+02 0.629E+01 -.177E+04   -.519E+00 0.601E+00 -.433E+01   0.624E-01 -.181E-01 -.335E-01
   0.128E+03 -.165E+02 -.104E+03   -.128E+03 0.167E+02 0.105E+03   0.243E+00 -.234E+00 -.110E+01   0.240E-01 0.747E-02 -.681E-01
   -.570E+02 0.138E+03 0.184E+04   0.578E+02 -.137E+03 -.184E+04   -.549E+00 -.413E+00 -.275E+01   0.886E-01 -.122E+00 -.496E-01
   0.640E+02 0.134E+03 -.140E+03   -.631E+02 -.135E+03 0.141E+03   -.818E+00 0.371E+00 -.499E-01   -.943E-02 0.415E-02 -.731E-01
   -.417E+03 -.254E+01 0.920E+03   0.418E+03 0.142E+01 -.919E+03   -.729E+00 0.138E+01 -.165E+01   -.394E-01 0.505E-01 -.135E+00
   -.126E+03 -.618E+02 -.136E+04   0.127E+03 0.607E+02 0.136E+04   -.103E+01 0.113E+01 0.303E+01   -.350E-01 0.745E-02 -.252E-01
   0.293E+03 -.115E+03 0.169E+04   -.293E+03 0.116E+03 -.168E+04   0.276E+00 -.357E+00 -.419E+01   0.993E-01 0.854E-02 -.413E-01
   0.317E+03 -.158E+03 -.150E+03   -.317E+03 0.158E+03 0.151E+03   0.151E+00 -.152E+00 -.598E+00   0.472E-01 0.345E-03 -.363E-01
   -.168E+02 0.479E+01 0.256E+03   0.163E+02 -.468E+01 -.257E+03   0.559E+00 -.275E+00 -.254E-01   0.224E-02 -.666E-02 -.347E-01
   -.505E+02 -.113E+03 -.509E+03   0.500E+02 0.113E+03 0.508E+03   0.442E+00 0.299E+00 0.152E+01   -.246E-02 0.974E-03 -.583E-02
   0.173E+03 -.480E+01 0.252E+03   -.172E+03 0.471E+01 -.253E+03   -.140E+01 0.571E+00 0.468E+00   0.225E-01 -.779E-03 -.166E-01
   0.166E+03 -.365E+02 -.471E+03   -.165E+03 0.380E+02 0.468E+03   -.119E+01 -.152E+01 0.269E+01   0.972E-02 -.853E-03 0.356E-02
   0.128E+03 -.526E+02 -.152E+02   -.127E+03 0.527E+02 0.149E+02   -.432E+00 -.680E-01 0.297E+00   0.140E-01 0.152E-02 -.708E-02
   0.116E+03 -.557E+02 0.515E+03   -.115E+03 0.557E+02 -.512E+03   -.805E+00 -.244E+00 -.265E+01   0.220E-01 0.163E-02 -.146E-01
   -.100E+03 0.692E+02 -.698E+02   0.100E+03 -.687E+02 0.699E+02   0.795E-01 -.522E+00 -.734E-02   -.109E-01 -.419E-02 -.222E-01
   -.100E+03 0.596E+02 0.566E+03   0.995E+02 -.591E+02 -.563E+03   0.469E+00 -.553E+00 -.282E+01   -.806E-02 0.860E-02 -.123E-01
   0.750E+02 -.125E+02 0.230E+03   -.761E+02 0.119E+02 -.230E+03   0.103E+01 0.849E+00 -.493E+00   0.190E-01 0.368E-02 -.239E-01
   -.563E+02 -.101E+03 -.446E+03   0.561E+02 0.101E+03 0.444E+03   0.161E+00 0.543E+00 0.210E+01   0.981E-03 0.264E-02 -.406E-02
   -.585E+02 0.490E+01 -.384E+03   0.583E+02 -.469E+01 0.382E+03   0.138E+00 -.205E+00 0.267E+01   -.647E-02 -.603E-02 -.295E-02
   -.161E+03 0.657E+01 0.251E+03   0.161E+03 -.637E+01 -.252E+03   0.180E+00 -.368E+00 0.297E+00   -.373E-01 0.351E-02 -.584E-01
   -.149E+03 -.556E+01 0.525E+03   0.148E+03 0.555E+01 -.522E+03   0.710E+00 -.516E-01 -.260E+01   -.455E-01 -.368E-01 -.216E-01
   -.188E+03 -.726E+01 -.780E+02   0.187E+03 0.712E+01 0.780E+02   0.878E+00 0.135E+00 -.158E-01   -.137E-01 0.284E-02 -.154E-01
   0.792E+02 0.112E-01 0.234E+03   -.794E+02 0.383E+00 -.235E+03   0.921E-01 -.947E-01 -.190E+00   0.204E-01 -.455E-02 -.309E-01
   0.384E+02 0.120E+03 -.452E+03   -.379E+02 -.120E+03 0.450E+03   -.504E+00 -.105E+00 0.192E+01   0.123E-02 -.400E-02 -.622E-02
   0.508E+02 0.312E+01 -.751E+02   -.512E+02 -.288E+01 0.747E+02   0.427E+00 -.232E+00 0.418E+00   0.913E-02 -.270E-02 -.159E-01
   0.339E+02 -.144E+01 0.546E+03   -.347E+02 0.137E+01 -.544E+03   0.631E+00 0.465E-01 -.250E+01   0.469E-01 0.721E-02 -.120E-01
   0.127E+03 0.116E+02 0.224E+03   -.126E+03 -.119E+02 -.224E+03   -.881E+00 0.591E+00 -.411E+00   0.240E-01 -.210E-02 -.185E-01
   0.688E+02 0.172E+02 -.414E+03   -.672E+02 -.157E+02 0.413E+03   -.163E+01 -.152E+01 0.156E+01   0.105E-01 -.291E-02 0.351E-02
   0.125E+03 0.660E+01 0.252E+03   -.125E+03 -.644E+01 -.251E+03   0.142E+00 -.321E+00 -.616E+00   0.171E-01 0.331E-03 -.127E-01
   0.725E+02 0.239E+02 -.350E+03   -.737E+02 -.245E+02 0.347E+03   0.122E+01 0.632E+00 0.230E+01   0.196E-02 -.187E-02 0.653E-02
   0.126E+03 0.396E+02 0.475E+03   -.126E+03 -.394E+02 -.472E+03   0.144E+00 -.439E+00 -.268E+01   0.172E-01 -.111E-02 -.153E-01
   0.143E+03 0.338E+02 -.306E+01   -.143E+03 -.331E+02 0.281E+01   -.176E+00 -.732E+00 0.263E+00   0.110E-01 0.526E-03 -.589E-02
   -.979E+02 -.116E+01 0.532E+03   0.982E+02 0.109E+01 -.528E+03   -.481E+00 0.274E-01 -.308E+01   -.397E-01 0.301E-01 -.162E-01
   -.140E+03 0.427E+01 -.486E+02   0.140E+03 -.419E+01 0.491E+02   0.455E+00 -.732E-01 -.551E+00   -.141E-01 -.271E-02 -.178E-01
   0.129E+03 0.283E+02 0.501E+03   -.128E+03 -.286E+02 -.498E+03   -.240E+00 0.358E+00 -.247E+01   0.334E-01 -.246E-02 -.139E-01
   0.133E+03 0.397E+02 -.297E+02   -.133E+03 -.396E+02 0.290E+02   -.733E+00 -.630E-01 0.692E+00   0.137E-01 -.939E-04 -.106E-01
   0.165E+01 -.194E+01 -.394E+03   -.218E+01 0.958E+00 0.391E+03   0.517E+00 0.982E+00 0.279E+01   0.797E-02 -.167E-02 -.430E-03
   0.122E+03 -.663E+01 0.270E+03   -.123E+03 0.633E+01 -.270E+03   0.466E+00 0.280E+00 -.172E+00   0.281E-01 0.166E-02 -.201E-01
   0.383E+02 0.303E+01 0.209E+03   -.381E+02 -.294E+01 -.210E+03   -.132E+00 -.994E-01 -.465E-01   -.132E-02 0.679E-03 -.121E-01
   0.343E+02 0.566E+01 -.353E+03   -.357E+02 -.460E+01 0.350E+03   0.142E+01 -.106E+01 0.233E+01   0.177E-02 0.165E-02 0.303E-02
   -.400E+02 -.611E-01 0.486E+03   0.402E+02 0.452E+00 -.482E+03   -.547E-01 -.307E+00 -.281E+01   -.248E-01 -.467E-02 -.170E-01
   -.536E+02 -.453E+01 -.360E+02   0.535E+02 0.433E+01 0.362E+02   0.322E-01 0.201E+00 -.154E+00   -.991E-02 0.159E-02 -.126E-01
   0.524E+02 -.284E+01 0.468E+03   -.523E+02 0.220E+01 -.464E+03   0.142E-01 0.225E+00 -.309E+01   -.905E-02 0.399E-02 -.163E-01
   0.569E+02 -.411E+01 -.583E+02   -.566E+02 0.367E+01 0.591E+02   -.310E+00 0.439E+00 -.766E+00   0.212E-03 0.528E-03 -.234E-02
   -.675E+02 -.342E+01 0.238E+03   0.676E+02 0.363E+01 -.238E+03   0.101E+00 0.179E+00 0.197E+00   -.263E-01 -.660E-02 -.246E-01
   0.647E+01 -.583E+02 -.335E+03   -.524E+01 0.571E+02 0.333E+03   -.123E+01 0.123E+01 0.205E+01   -.260E-02 -.222E-02 0.192E-02
   0.410E+02 0.895E+00 0.482E+03   -.403E+02 -.764E+00 -.478E+03   -.869E+00 -.313E+00 -.328E+01   -.594E-02 -.259E-02 -.180E-01
   0.427E+02 0.120E+00 -.200E+02   -.422E+02 0.106E+00 0.205E+02   -.458E+00 -.225E+00 -.490E+00   0.170E-02 -.977E-03 -.625E-02
   -.916E+02 0.548E+00 0.212E+03   0.913E+02 -.712E+00 -.213E+03   0.387E+00 0.247E+00 0.731E-01   -.217E-01 0.727E-02 -.244E-01
   -.531E+02 0.154E+01 -.389E+03   0.523E+02 -.236E+01 0.387E+03   0.732E+00 0.827E+00 0.212E+01   -.249E-02 -.132E-02 0.198E-02
   0.334E+02 0.319E+02 -.326E+03   -.323E+02 -.311E+02 0.325E+03   -.105E+01 -.817E+00 0.138E+01   0.192E-02 -.166E-02 0.250E-02
   0.535E+02 -.608E+01 0.246E+03   -.528E+02 0.598E+01 -.246E+03   -.741E+00 0.362E+00 -.120E+00   -.357E-02 -.238E-03 -.143E-01
   -.141E+03 -.427E+02 0.562E+03   0.140E+03 0.421E+02 -.558E+03   0.838E+00 0.717E-01 -.327E+01   -.993E-02 -.716E-02 -.120E-01
   -.147E+03 -.446E+02 -.474E+02   0.146E+03 0.441E+02 0.481E+02   0.429E+00 0.439E+00 -.642E+00   -.100E-01 0.258E-02 -.298E-01
   -.155E+03 0.509E+01 0.237E+03   0.154E+03 -.516E+01 -.237E+03   0.804E+00 0.361E+00 0.245E+00   -.239E-01 -.454E-02 -.273E-01
   -.110E+03 -.124E+01 -.389E+03   0.110E+03 0.158E+01 0.388E+03   0.525E+00 -.341E+00 0.163E+01   -.537E-02 0.211E-02 -.540E-04
   0.104E+03 0.107E+03 -.631E+03   -.104E+03 -.108E+03 0.637E+03   0.139E+00 0.667E+00 -.556E+01   0.277E-01 0.890E-02 0.316E-02
   -.488E+02 0.116E+02 -.804E+03   0.491E+02 -.140E+02 0.819E+03   -.292E+00 0.230E+01 -.149E+02   -.148E-01 0.126E-01 0.212E-01
   0.174E+03 0.173E+02 -.613E+03   -.174E+03 -.190E+02 0.618E+03   0.807E+00 0.168E+01 -.556E+01   0.103E-01 0.270E-01 0.113E-01
   -.272E+02 0.807E+01 -.719E+03   0.269E+02 -.606E+01 0.728E+03   0.251E+00 -.203E+01 -.920E+01   0.102E-01 0.737E-02 -.114E-01
   0.626E+02 -.444E+02 -.805E+03   -.625E+02 0.484E+02 0.822E+03   -.108E+00 -.406E+01 -.169E+02   0.173E-01 0.892E-02 0.841E-03
   0.207E+02 -.666E+02 -.929E+03   -.168E+02 0.659E+02 0.949E+03   -.386E+01 0.716E+00 -.194E+02   0.943E-02 0.119E-01 0.163E-01
   -.127E+03 -.901E+02 -.978E+03   0.126E+03 0.894E+02 0.997E+03   0.115E+01 0.727E+00 -.188E+02   -.247E-01 0.428E-02 -.181E-01
   0.210E+02 0.107E+02 -.968E+03   -.214E+02 -.988E+01 0.988E+03   0.403E+00 -.818E+00 -.205E+02   -.942E-02 0.158E-01 0.309E-01
   0.364E+02 -.167E+02 -.809E+03   -.376E+02 0.173E+02 0.827E+03   0.117E+01 -.678E+00 -.177E+02   0.243E-01 0.120E-01 -.757E-02
 -----------------------------------------------------------------------------------------------
   0.105E+01 0.311E+01 0.146E+03   -.185E-12 0.135E-12 0.261E-11   -.126E+01 -.310E+01 -.145E+03   0.207E+00 0.103E-02 -.132E+01
 
 
 POSITION                                       TOTAL-FORCE (eV/Angst)
 -----------------------------------------------------------------------------------
      8.57631      8.29685     10.39845        -0.070578     -0.164187     -0.000882
      8.58709      3.73261     15.14287         0.001167      0.002163      0.000517
      8.46496      6.01015     17.26186         0.004425     -0.003304      0.000825
      8.51616      0.79995     12.43874        -0.047597     -0.095324     -0.125210
     13.52475      6.12116     15.24966        -0.004561      0.001344     -0.000492
     13.49094      1.15316     10.44749        -0.039720     -0.408255     -0.037895
     10.03344      3.28428     12.67411        -0.084837      0.460658     -0.549822
      9.96867      8.40588     17.23738         0.000921     -0.000895     -0.000865
      7.12524      5.81577     10.15765        -0.122986     -0.452484      0.919956
      7.06290      1.29479     14.98493        -0.003374     -0.003316      0.002805
      8.51222      3.28036     10.20450         0.289504      0.042642      0.815036
      8.49642      8.33057     14.87401         0.000911     -0.002185     -0.000487
     10.22263      8.06723     12.77991         0.284373      0.312633     -0.382352
     10.27247      3.88701     17.36639        -0.000602      0.001371      0.000817
      5.42664      8.10481     10.20639         0.311056      0.061384      0.899559
      5.37272      3.53439     15.09591        -0.002354      0.002336     -0.000143
      8.52843      5.75423     12.65640         0.035531     -0.172832     -0.261876
      8.67930      1.42245     17.32859        -0.004476      0.002153     -0.000722
      3.84829      7.97317     12.47259        -0.501021      0.481977     -0.527992
      3.87687      3.39029     17.45858         0.005835     -0.003242     -0.006221
      3.82976      5.67235     14.82125        -0.000091     -0.000092     -0.000734
      3.90063      0.73891     10.00000         0.467431     -0.186912      0.382259
     10.15386      6.07434     14.92135        -0.000981     -0.002602      0.001234
     10.19112      1.10470     10.13736        -0.207945     -0.016412      0.330774
      6.82945      7.99424     12.66670        -0.022734      0.292666     -0.432859
      6.90979      3.64154     17.39772        -0.000707     -0.007422     -0.002024
     11.54117      6.20286     17.33186         0.003467     -0.002700     -0.001970
     11.66772      1.05372     12.57547        -0.172426     -0.161451     -0.679058
     11.73919      3.33868     10.41199        -0.263171     -0.100212      0.569272
     11.75951      8.28346     15.29690         0.001263      0.000518     -0.001164
      7.18522      3.24644     12.75390        -0.139818      0.294916     -0.430702
      7.30206      8.44750     17.37545         0.002307     -0.001038     -0.000121
      6.83068      5.95936     14.87349         0.000111      0.000071      0.003779
      6.87795      0.97560     10.08695        -0.056934     -0.019654      0.167111
      5.51084      5.55012     12.48419        -0.185894      0.300076     -0.457595
      5.60027      1.00793     17.49853        -0.000840      0.001063     -0.003801
      3.51249      3.50019     12.83519        -0.005372     -0.159460     -0.192527
      3.20821      8.71552     17.51512         0.003381     -0.008532      0.002229
      3.46798      5.87237     10.40868         0.067155     -0.237410     -0.044714
      3.46264      1.32849     15.17173         0.002298      0.000866      0.001858
     11.91771      8.21633     10.24534        -0.215937     -0.007338      0.686263
     11.90791      3.66564     15.09321         0.000430     -0.003043     -0.001546
      5.24135      3.36543     10.32679         0.149028      0.097031      0.181729
      5.19929      8.36089     15.10636        -0.000179     -0.000922      0.000803
      5.27115      6.17545     17.34670        -0.005942     -0.002316      0.000616
      5.28930      0.99064     12.60849         0.181112     -0.023286     -0.354605
      1.60538      5.84491     12.85122         0.095371     -0.008433     -0.577584
      1.40260      1.66473     17.58444        -0.000335     -0.003806     -0.003499
     13.72038      5.67134     10.18293         0.171837      0.079376      0.633976
     13.69593      1.08560     15.02354        -0.000059     -0.001379     -0.002917
      1.63456      8.33987     10.36453         0.035641     -0.414842      0.157083
      1.61639      3.76909     15.33730         0.002506     -0.001208     -0.001823
     13.76831      3.16119     12.53308         0.150846      0.382415     -0.241735
      0.07903      8.26903     17.50074        -0.004703     -0.003967      0.002121
      1.99440      3.17314     10.17666        -0.131799     -0.183911      0.638028
      1.90030      8.09687     15.03636        -0.000539      0.000255      0.003555
     13.48051      8.37930     12.86886         0.069245      0.089259     -0.311960
     13.27889      4.10306     17.80397         0.004314      0.000146     -0.000291
      1.92543      5.95757     17.57811        -0.003852     -0.001831     -0.000290
      2.02729      0.87737     12.46815        -0.000794      0.265534     -0.417292
     10.07171      5.79402     10.14663         0.132985     -0.572067      0.150712
     10.16214      1.19659     14.88280         0.000154     -0.000958      0.001842
     11.97051      5.66181     12.67660        -0.164283      0.291428     -0.510565
     11.85513      1.34565     17.73090         0.002969     -0.006443      0.000761
      5.24004      8.43894     17.44173        -0.004923      0.001686      0.000742
     13.52334      2.24353     18.71491        -0.000215      0.000538     -0.000874
      3.55523      1.20965     17.54825        -0.000290      0.001943      0.000406
     13.46221      6.22259     18.17120        -0.003060     -0.004538     -0.001967
      3.72312      5.15848     18.39218        -0.003763     -0.001472      0.001876
      5.54796      2.79573     18.47432         0.000113     -0.002917      0.004162
     10.17756      0.42391     18.49141         0.003142     -0.004533      0.001820
      7.25203      0.51442     18.46935         0.001337     -0.005785      0.002302
      1.90541      7.86894     18.61928        -0.002474     -0.003528      0.002349
 -----------------------------------------------------------------------------------
    total drift:                               -0.001754      0.010776      0.025369


--------------------------------------------------------------------------------------------------------



  FREE ENERGIE OF THE ION-ELECTRON SYSTEM (eV)
  ---------------------------------------------------
  free  energy   TOTEN  =      -598.01227564 eV

  energy  without entropy=     -598.01792466  energy(sigma->0) =     -598.01368789
 
 d Force = 0.4941481E-04[ 0.954E-05, 0.893E-04]  d Energy = 0.8660537E-04-0.372E-04
 d Force = 0.1612249E+01[ 0.161E+01, 0.161E+01]  d Ewald  = 0.1612249E+01-0.418E-06


--------------------------------------------------------------------------------------------------------


    POTLOK:  cpu time    0.0591: real time    0.0591


--------------------------------------------------------------------------------------------------------




--------------------------------------------------------------------------------------------------------


  
 reached required accuracy - stopping structural energy minimisation
     LOOP+:  cpu time   46.4322: real time   46.4863
    4ORBIT:  cpu time    0.0000: real time    0.0000

 total amount of memory used by VASP on root node    79631. kBytes
========================================================================

   base      :      30000. kBytes
   nonl-proj :      13917. kBytes
   fftplans  :       3278. kBytes
   grid      :       7939. kBytes
   one-center:         31. kBytes
   wavefun   :      24466. kBytes
 
  
  
 General timing and accounting informations for this job:
 ========================================================
  
                  Total CPU time used (sec):      584.011
                            User time (sec):      573.728
                          System time (sec):       10.283
                         Elapsed time (sec):      584.935
  
                   Maximum memory used (kb):      158812.
                   Average memory used (kb):           0.
  
                          Minor page faults:        41981
                          Major page faults:            0
                 Voluntary context switches:         6013
