 vasp.5.4.1 05Feb16 (build Mar 19 2020 08:54:17) complex                        
  
 executed on           IFC91_ompi date 2021.10.23  19:31:29
 running on   96 total cores
 distrk:  each k-point on   96 cores,    1 groups
 distr:  one band on NCORES_PER_BAND=  48 cores,    2 groups


--------------------------------------------------------------------------------------------------------


 INCAR:
 POTCAR:    PAW_PBE Al 04Jan2001                  
 POTCAR:    PAW_PBE Nb_sv 25May2007               
 POTCAR:    PAW_PBE Ta 17Jan2003                  
 POTCAR:    PAW_PBE Ti 08Apr2002                  
 POTCAR:   PAW_PBE Zr 08Apr2002                   
 POTCAR:    PAW_PBE O 08Apr2002                   

 ----------------------------------------------------------------------------- 
|                                                                             |
|           W    W    AA    RRRRR   N    N  II  N    N   GGGG   !!!           |
|           W    W   A  A   R    R  NN   N  II  NN   N  G    G  !!!           |
|           W    W  A    A  R    R  N N  N  II  N N  N  G       !!!           |
|           W WW W  AAAAAA  RRRRR   N  N N  II  N  N N  G  GGG   !            |
|           WW  WW  A    A  R   R   N   NN  II  N   NN  G    G                |
|           W    W  A    A  R    R  N    N  II  N    N   GGGG   !!!           |
|                                                                             |
|      For optimal performance we recommend to set                            |
|        NCORE= 4 - approx SQRT( number of cores)                             |
|      NCORE specifies how many cores store one orbital (NPAR=cpu/NCORE).     |
|      This setting can  greatly improve the performance of VASP for DFT.     |
|      The default, NPAR=number of cores might be grossly inefficient         |
|      on modern multi-core architectures or massively parallel machines.     |
|      Do your own testing !!!!                                               |
|      Unfortunately you need to use the default for GW and RPA calculations. |
|      (for HF NCORE is supported but not extensively tested yet)             |
|                                                                             |
 ----------------------------------------------------------------------------- 

 POTCAR:    PAW_PBE Al 04Jan2001                  
   VRHFIN =Al: s2p1                                                             
   LEXCH  = PE                                                                  
   EATOM  =    53.5387 eV,    3.9350 Ry                                         
                                                                                
   TITEL  = PAW_PBE Al 04Jan2001                                                
   LULTRA =        F    use ultrasoft PP ?                                      
   IUNSCR =        1    unscreen: 0-lin 1-nonlin 2-no                           
   RPACOR =    1.500    partial core radius                                     
   POMASS =   26.981; ZVAL   =    3.000    mass and valenz                      
   RCORE  =    1.900    outmost cutoff radius                                   
   RWIGS  =    2.650; RWIGS  =    1.402    wigner-seitz radius (au A)           
   ENMAX  =  240.300; ENMIN  =  180.225 eV                                      
   ICORE  =        2    local potential                                         
   LCOR   =        T    correct aug charges                                     
   LPAW   =        T    paw PP                                                  
   EAUG   =  291.052                                                            
   DEXC   =    0.000                                                            
   RMAX   =    1.939    core radius for proj-oper                               
   RAUG   =    1.300    factor for augmentation sphere                          
   RDEP   =    1.966    radius for radial grids                                 
   RDEPT  =    1.856    core radius for aug-charge                              
                                                                                
   Atomic configuration                                                         
    6 entries                                                                   
     n  l   j            E        occ.                                          
     1  0  0.50     -1511.1048   2.0000                                         
     2  0  0.50      -108.1629   2.0000                                         
     2  1  1.50       -69.6402   6.0000                                         
     3  0  0.50        -7.7528   2.0000                                         
     3  1  1.50        -2.7121   1.0000                                         
     3  2  2.50        -2.7212   0.0000                                         
   Description                                                                  
     l       E           TYP  RCUT    TYP  RCUT                                 
     0     -7.7528455     23  1.900                                             
     0     -3.3096929     23  1.900                                             
     1     -2.7120682     23  1.900                                             
     1     13.6058260     23  1.900                                             
     2     -2.7211652      7  1.900                                             
  local pseudopotential read in
  partial core-charges read in
  partial kinetic energy density read in
  atomic valenz-charges read in
  non local Contribution for L=           0  read in
    real space projection operators read in
  non local Contribution for L=           0  read in
    real space projection operators read in
  non local Contribution for L=           1  read in
    real space projection operators read in
  non local Contribution for L=           1  read in
    real space projection operators read in
    PAW grid and wavefunctions read in
 
   number of l-projection  operators is LMAX  =           4
   number of lm-projection operators is LMMAX =           8
 
 POTCAR:    PAW_PBE Nb_sv 25May2007               
   VRHFIN =Nb: 4p5s4d                                                           
   LEXCH  = PE                                                                  
   EATOM  =  1555.1913 eV,  114.3033 Ry                                         
                                                                                
   TITEL  = PAW_PBE Nb_sv 25May2007                                             
   LULTRA =        F    use ultrasoft PP ?                                      
   IUNSCR =        1    unscreen: 0-lin 1-nonlin 2-no                           
   RPACOR =    1.800    partial core radius                                     
   POMASS =   92.910; ZVAL   =   13.000    mass and valenz                      
   RCORE  =    2.400    outmost cutoff radius                                   
   RWIGS  =    2.400; RWIGS  =    1.270    wigner-seitz radius (au A)           
   ENMAX  =  293.235; ENMIN  =  219.927 eV                                      
   ICORE  =        3    local potential                                         
   LCOR   =        T    correct aug charges                                     
   LPAW   =        T    paw PP                                                  
   EAUG   =  455.659                                                            
   DEXC   =    0.000                                                            
   RMAX   =    2.456    core radius for proj-oper                               
   RAUG   =    1.300    factor for augmentation sphere                          
   RDEP   =    2.451    radius for radial grids                                 
   RDEPT  =    1.956    core radius for aug-charge                              
                                                                                
   Atomic configuration                                                         
   11 entries                                                                   
     n  l   j            E        occ.                                          
     1  0  0.50    -18805.2457   2.0000                                         
     2  0  0.50     -2630.2869   2.0000                                         
     2  1  1.50     -2348.4046   6.0000                                         
     3  0  0.50      -438.8757   2.0000                                         
     3  1  1.50      -346.7588   6.0000                                         
     3  2  2.50      -196.2560  10.0000                                         
     4  0  0.50       -58.3859   2.0000                                         
     5  0  0.50        -3.9816   1.0000                                         
     4  1  1.50       -34.5141   6.0000                                         
     4  2  2.50        -3.0408   4.0000                                         
     4  3  2.50        -1.3606   0.0000                                         
   Description                                                                  
     l       E           TYP  RCUT    TYP  RCUT                                 
     0    -58.3859094     23  2.200                                             
     0     -3.9816262     23  2.200                                             
     1    -34.5140738     23  2.200                                             
     1     13.6058260     23  2.200                                             
     2     -3.0408010     23  2.200                                             
     2     -0.1283038     23  2.200                                             
     3     -1.3605826     23  2.400                                             
  local pseudopotential read in
  partial core-charges read in
  partial kinetic energy density read in
  atomic valenz-charges read in
  non local Contribution for L=           0  read in
    real space projection operators read in
  non local Contribution for L=           0  read in
    real space projection operators read in
  non local Contribution for L=           1  read in
    real space projection operators read in
  non local Contribution for L=           1  read in
    real space projection operators read in
  non local Contribution for L=           2  read in
    real space projection operators read in
  non local Contribution for L=           2  read in
    real space projection operators read in
    PAW grid and wavefunctions read in
 
   number of l-projection  operators is LMAX  =           6
   number of lm-projection operators is LMMAX =          18
 
 POTCAR:    PAW_PBE Ta 17Jan2003                  
   VRHFIN =Ta:  6s5d                                                            
   LEXCH  = PE                                                                  
   EATOM  =   130.6506 eV,    9.6025 Ry                                         
                                                                                
   TITEL  = PAW_PBE Ta 17Jan2003                                                
   LULTRA =        F    use ultrasoft PP ?                                      
   IUNSCR =        1    unscreen: 0-lin 1-nonlin 2-no                           
   RPACOR =    2.330    partial core radius                                     
   POMASS =  180.948; ZVAL   =    5.000    mass and valenz                      
   RCORE  =    2.900    outmost cutoff radius                                   
   RWIGS  =    2.840; RWIGS  =    1.503    wigner-seitz radius (au A)           
   ENMAX  =  223.667; ENMIN  =  167.750 eV                                      
   RCLOC  =    2.205    cutoff for local pot                                    
   LCOR   =        T    correct aug charges                                     
   LPAW   =        T    paw PP                                                  
   EAUG   =  332.075                                                            
   DEXC   =    0.000                                                            
   RMAX   =    2.970    core radius for proj-oper                               
   RAUG   =    1.300    factor for augmentation sphere                          
   RDEP   =    3.060    radius for radial grids                                 
   RDEPT  =    2.354    core radius for aug-charge                              
                                                                                
   Atomic configuration                                                         
   16 entries                                                                   
     n  l   j            E        occ.                                          
     1  0  0.50    -67341.2807   2.0000                                         
     2  0  0.50    -11566.9376   2.0000                                         
     2  1  1.50    -10134.1182   6.0000                                         
     3  0  0.50     -2648.5620   2.0000                                         
     3  1  1.50     -2222.6012   6.0000                                         
     3  2  2.50     -1726.3120  10.0000                                         
     4  0  0.50      -538.6961   2.0000                                         
     4  1  1.50      -399.0129   6.0000                                         
     4  2  2.50      -220.3959  10.0000                                         
     4  3  3.50       -23.0374  14.0000                                         
     5  0  0.50       -71.2901   2.0000                                         
     5  1  1.50       -37.8225   6.0000                                         
     5  2  2.50        -2.6455   4.0000                                         
     6  0  0.50        -4.9623   1.0000                                         
     6  1  1.50        -1.3606   0.0000                                         
     5  3  2.50        -1.3606   0.0000                                         
   Description                                                                  
     l       E           TYP  RCUT    TYP  RCUT                                 
     2     -2.6455043     23  2.500                                             
     2     -0.6258895     23  2.500                                             
     0     -4.9622780     23  2.500                                             
     0      4.7531321     23  2.500                                             
     1     -1.3605826     23  2.900                                             
     1     27.2116520     23  2.900                                             
  local pseudopotential read in
  partial core-charges read in
  partial kinetic energy density read in
  atomic valenz-charges read in
  non local Contribution for L=           2  read in
    real space projection operators read in
  non local Contribution for L=           2  read in
    real space projection operators read in
  non local Contribution for L=           0  read in
    real space projection operators read in
  non local Contribution for L=           0  read in
    real space projection operators read in
  non local Contribution for L=           1  read in
    real space projection operators read in
  non local Contribution for L=           1  read in
    real space projection operators read in
    PAW grid and wavefunctions read in
 
   number of l-projection  operators is LMAX  =           6
   number of lm-projection operators is LMMAX =          18
 
 POTCAR:    PAW_PBE Ti 08Apr2002                  
   VRHFIN =Ti: d3 s1                                                            
   LEXCH  = PE                                                                  
   EATOM  =    94.7928 eV,    6.9671 Ry                                         
                                                                                
   TITEL  = PAW_PBE Ti 08Apr2002                                                
   LULTRA =        F    use ultrasoft PP ?                                      
   IUNSCR =        1    unscreen: 0-lin 1-nonlin 2-no                           
   RPACOR =    2.200    partial core radius                                     
   POMASS =   47.880; ZVAL   =    4.000    mass and valenz                      
   RCORE  =    2.800    outmost cutoff radius                                   
   RWIGS  =    2.500; RWIGS  =    1.323    wigner-seitz radius (au A)           
   ENMAX  =  178.330; ENMIN  =  133.747 eV                                      
   RCLOC  =    2.215    cutoff for local pot                                    
   LCOR   =        T    correct aug charges                                     
   LPAW   =        T    paw PP                                                  
   EAUG   =  328.883                                                            
   DEXC   =    0.000                                                            
   RMAX   =    2.868    core radius for proj-oper                               
   RAUG   =    1.300    factor for augmentation sphere                          
   RDEP   =    2.885    radius for radial grids                                 
   RDEPT  =    2.320    core radius for aug-charge                              
                                                                                
   Atomic configuration                                                         
    9 entries                                                                   
     n  l   j            E        occ.                                          
     1  0  0.50     -4865.3608   2.0000                                         
     2  0  0.50      -533.1367   2.0000                                         
     2  1  1.50      -440.5031   6.0000                                         
     3  0  0.50       -59.3186   2.0000                                         
     3  1  1.50       -35.7012   6.0000                                         
     3  2  2.50        -1.9157   3.0000                                         
     4  0  0.50        -3.7291   1.0000                                         
     4  1  1.50        -4.0817   0.0000                                         
     4  3  2.50        -1.3606   0.0000                                         
   Description                                                                  
     l       E           TYP  RCUT    TYP  RCUT                                 
     2     -1.9156924     23  2.800                                             
     2     -0.4062961     23  2.800                                             
     0     -3.7290832     23  2.800                                             
     0     20.4087390     23  2.800                                             
     1     -5.4423304     23  2.800                                             
  local pseudopotential read in
  partial core-charges read in
  partial kinetic energy density read in
  atomic valenz-charges read in
  non local Contribution for L=           2  read in
    real space projection operators read in
  non local Contribution for L=           2  read in
    real space projection operators read in
  non local Contribution for L=           0  read in
    real space projection operators read in
  non local Contribution for L=           0  read in
    real space projection operators read in
  non local Contribution for L=           1  read in
    real space projection operators read in
    PAW grid and wavefunctions read in
 
   number of l-projection  operators is LMAX  =           5
   number of lm-projection operators is LMMAX =          15
 
 POTCAR:   PAW_PBE Zr 08Apr2002                   
   VRHFIN =Zr: 5s4d5p                                                           
   LEXCH  = PE                                                                  
   EATOM  =    77.8472 eV,    5.7216 Ry                                         
                                                                                
   TITEL  = PAW_PBE Zr 08Apr2002                                                
   LULTRA =        F    use ultrasoft PP ?                                      
   IUNSCR =        1    unscreen: 0-lin 1-nonlin 2-no                           
   RPACOR =    2.200    partial core radius                                     
   POMASS =   91.224; ZVAL   =    4.000    mass and valenz                      
   RCORE  =    3.000    outmost cutoff radius                                   
   RWIGS  =    3.070; RWIGS  =    1.625    wigner-seitz radius (au A)           
   ENMAX  =  154.632; ENMIN  =  115.974 eV                                      
   RCLOC  =    2.213    cutoff for local pot                                    
   LCOR   =        T    correct aug charges                                     
   LPAW   =        T    paw PP                                                  
   EAUG   =  243.217                                                            
   DEXC   =    -.082                                                            
   RMAX   =    3.708    core radius for proj-oper                               
   RAUG   =    1.300    factor for augmentation sphere                          
   RDEP   =    3.146    radius for radial grids                                 
   QCUT   =   -3.371; QGAM   =    6.742    optimization parameters              
                                                                                
   Description                                                                  
     l     E      TYP  RCUT    TYP  RCUT                                        
     2   .000     23  3.000                                                     
     2   .000     23  3.000                                                     
     0   .000     23  3.000                                                     
     0  2.000     23  3.000                                                     
     1  -.400     23  3.000                                                     
     3   .000      7   .000                                                     
  local pseudopotential read in
  partial core-charges read in
  atomic valenz-charges read in
  non local Contribution for L=           2  read in
    real space projection operators read in
  non local Contribution for L=           2  read in
    real space projection operators read in
  non local Contribution for L=           0  read in
    real space projection operators read in
  non local Contribution for L=           0  read in
    real space projection operators read in
  non local Contribution for L=           1  read in
    real space projection operators read in
    PAW grid and wavefunctions read in
 
   number of l-projection  operators is LMAX  =           5
   number of lm-projection operators is LMMAX =          15
 
 POTCAR:    PAW_PBE O 08Apr2002                   
   VRHFIN =O: s2p4                                                              
   LEXCH  = PE                                                                  
   EATOM  =   432.3788 eV,   31.7789 Ry                                         
                                                                                
   TITEL  = PAW_PBE O 08Apr2002                                                 
   LULTRA =        F    use ultrasoft PP ?                                      
   IUNSCR =        1    unscreen: 0-lin 1-nonlin 2-no                           
   RPACOR =    1.200    partial core radius                                     
   POMASS =   16.000; ZVAL   =    6.000    mass and valenz                      
   RCORE  =    1.520    outmost cutoff radius                                   
   RWIGS  =    1.550; RWIGS  =    0.820    wigner-seitz radius (au A)           
   ENMAX  =  400.000; ENMIN  =  300.000 eV                                      
   ICORE  =        2    local potential                                         
   LCOR   =        T    correct aug charges                                     
   LPAW   =        T    paw PP                                                  
   EAUG   =  605.392                                                            
   DEXC   =    0.000                                                            
   RMAX   =    1.553    core radius for proj-oper                               
   RAUG   =    1.300    factor for augmentation sphere                          
   RDEP   =    1.550    radius for radial grids                                 
   RDEPT  =    1.329    core radius for aug-charge                              
                                                                                
   Atomic configuration                                                         
    4 entries                                                                   
     n  l   j            E        occ.                                          
     1  0  0.50      -514.6923   2.0000                                         
     2  0  0.50       -23.9615   2.0000                                         
     2  1  0.50        -9.0305   4.0000                                         
     3  2  1.50        -9.5241   0.0000                                         
   Description                                                                  
     l       E           TYP  RCUT    TYP  RCUT                                 
     0    -23.9615318     23  1.200                                             
     0     -9.5240782     23  1.200                                             
     1     -9.0304911     23  1.520                                             
     1      8.1634956     23  1.520                                             
     2     -9.5240782      7  1.500                                             
  local pseudopotential read in
  partial core-charges read in
  partial kinetic energy density read in
  kinetic energy density of atom read in
  atomic valenz-charges read in
  non local Contribution for L=           0  read in
    real space projection operators read in
  non local Contribution for L=           0  read in
    real space projection operators read in
  non local Contribution for L=           1  read in
    real space projection operators read in
  non local Contribution for L=           1  read in
    real space projection operators read in
    PAW grid and wavefunctions read in
 
   number of l-projection  operators is LMAX  =           4
   number of lm-projection operators is LMMAX =           8
 

 ----------------------------------------------------------------------------- 
|                                                                             |
|  ADVICE TO THIS USER RUNNING 'VASP/VAMP'   (HEAR YOUR MASTER'S VOICE ...):  |
|                                                                             |
|      You have a (more or less) 'large supercell' and for larger cells       |
|      it might be more efficient to use real space projection opertators     |
|      So try LREAL= Auto  in the INCAR   file.                               |
|      Mind: At the moment your POTCAR file does not contain real space       |
|       projectors, and has to be modified,  BUT if you                       |
|      want to do an extremely  accurate calculation you might also keep the  |
|      reciprocal projection scheme          (i.e. LREAL=.FALSE.)             |
|                                                                             |
 ----------------------------------------------------------------------------- 

 WARNING: PSMAXN for non-local potential too small
          PSMAXN should be >   12.5490833729506       NTYP=           5
  PAW_PBE Al 04Jan2001                  :
 energy of atom  1       EATOM=  -53.5387
 kinetic energy error for atom=    0.0002 (will be added to EATOM!!)
  PAW_PBE Nb_sv 25May2007               :
 energy of atom  2       EATOM=-1555.1913
 kinetic energy error for atom=    0.0037 (will be added to EATOM!!)
  PAW_PBE Ta 17Jan2003                  :
 energy of atom  3       EATOM= -130.6506
 kinetic energy error for atom=    0.0004 (will be added to EATOM!!)
  PAW_PBE Ti 08Apr2002                  :
 energy of atom  4       EATOM=  -94.7928
 kinetic energy error for atom=    0.0001 (will be added to EATOM!!)
 PAW_PBE Zr 08Apr2002                   :
 energy of atom  5       EATOM=  -77.8472
 kinetic energy error for atom=    0.0001 (will be added to EATOM!!)
  PAW_PBE O 08Apr2002                   :
 energy of atom  6       EATOM= -432.3788
 kinetic energy error for atom=    0.0168 (will be added to EATOM!!)
 
 
 POSCAR: Al Nb Ta Ti Zr                          
  positions in direct lattice
  velocities in cartesian coordinates
 exchange correlation table for  LEXCH =        8
   RHO(1)=    0.500       N(1)  =     2000
   RHO(2)=  100.500       N(2)  =     4000
 


--------------------------------------------------------------------------------------------------------


 ion  position               nearest neighbor table
   1  0.623  0.867  0.376-  34 2.83  25 2.88  24 2.88   9 2.88  13 2.90   4 2.91  61 2.93  15 3.16
                            41 3.35  17 3.40
   2  0.621  0.399  0.545-  31 2.77  14 2.81  33 2.81  23 2.83   7 2.88  26 2.89  10 2.92   3 2.96
                            62 3.00  17 3.11  42 3.38
   3  0.615  0.628  0.617-  32 2.67   8 2.78  23 2.80  33 2.80  14 2.84  26 2.92   2 2.96  27 3.04
                            12 3.13  45 3.29
   4  0.618  0.084  0.450-  31 2.80  24 2.86  34 2.87  13 2.88   1 2.91  25 2.92   7 2.92  62 2.99
                            10 3.04  28 3.16  46 3.24
   5  0.978  0.642  0.551-  30 2.81  27 2.89  56 2.93  42 2.94  63 3.02  52 3.03  47 3.08  54 3.13
                            59 3.18  23 3.26  57 3.27  58 3.30
   6  0.980  0.121  0.378-  29 2.80  28 2.80  53 2.91  41 2.96  51 3.05  55 3.05  60 3.08  57 3.37

   7  0.729  0.343  0.458-  28 2.77  29 2.83  31 2.85   2 2.88  17 2.89  11 2.90   4 2.92  62 3.06
                            63 3.07  42 3.08
   8  0.723  0.873  0.626-  71 2.06  27 2.63  30 2.70  32 2.71  18 2.77   3 2.78  12 2.79  64 3.16
                            62 3.41
   9  0.517  0.608  0.367-  35 2.84  15 2.85  17 2.87   1 2.88  11 2.89  61 2.95  43 3.10
  10  0.513  0.136  0.545-  16 2.82  18 2.91  36 2.91   2 2.92  12 2.94  62 3.02  31 3.02   4 3.04
                            46 3.05  44 3.11
  11  0.618  0.343  0.369-  24 2.75  34 2.83  31 2.87   9 2.89   7 2.90  61 2.96  43 3.27
  12  0.617  0.867  0.540-  13 2.77   8 2.79  32 2.80  23 2.81  25 2.83  33 2.88  10 2.94  62 2.97
                             3 3.13  44 3.31
  13  0.742  0.843  0.462-  12 2.77  17 2.87   4 2.88  23 2.89   1 2.90  28 2.94  30 2.94  63 2.98
                            41 3.05  57 3.27
  14  0.740  0.394  0.628-  74 2.06  27 2.77   2 2.81   3 2.84  42 2.89  64 2.99  18 2.99  58 3.08

  15  0.394  0.847  0.369-  22 2.68  19 2.76  25 2.83  34 2.84   9 2.85  39 2.98   1 3.16  46 3.43

  16  0.388  0.370  0.546-  21 2.65  20 2.80  10 2.82  33 2.84  26 2.84  40 2.90  37 2.91  31 2.99
                            45 3.43
  17  0.619  0.602  0.458-  25 2.81  33 2.82  23 2.83  31 2.85   9 2.87  13 2.87   7 2.89  61 2.95
                            35 3.03   2 3.11   1 3.40  63 3.44
  18  0.627  0.127  0.633-  72 2.03  74 2.07  71 2.11   8 2.77  32 2.79  26 2.91  10 2.91  62 2.94
                            14 2.99  36 3.09  64 3.21
  19  0.279  0.834  0.451-  15 2.76  35 2.94  46 2.96  39 2.97  25 2.99  44 2.99  60 3.07  51 3.08
                            47 3.12  56 3.24  21 3.28
  20  0.279  0.353  0.631-  69 2.00  70 2.03  67 2.21  16 2.80  36 2.95  48 3.03  26 3.08  45 3.10
                            40 3.10  52 3.15  59 3.23
  21  0.276  0.593  0.536-  16 2.65  35 2.89  45 2.90  47 2.95  37 2.95  52 2.96  33 2.99  44 3.06
                            56 3.08  19 3.28  59 3.36
  22  0.283  0.077  0.361-  15 2.68  46 2.97  43 2.97  34 2.99  51 3.02  55 3.10  60 3.10
  23  0.743  0.637  0.538-  30 2.75  27 2.77   3 2.80  12 2.81   2 2.83  17 2.83  63 2.85  13 2.89
                            42 2.98   5 3.26
  24  0.740  0.115  0.366-  29 2.73  11 2.75  28 2.85   4 2.86   1 2.88  41 3.00
  25  0.496  0.836  0.458-  35 2.78  17 2.81  12 2.83  15 2.83   1 2.88   4 2.92  44 2.97  33 2.97
                            19 2.99  46 2.99
  26  0.503  0.373  0.631-  70 1.94  74 1.97  16 2.84   2 2.89  18 2.91   3 2.92  36 2.94  20 3.08
                            45 3.12
  27  0.835  0.649  0.627-  68 2.08   8 2.63  23 2.77  14 2.77  58 2.78   5 2.89  30 3.00   3 3.04
                            54 3.11  42 3.46
  28  0.847  0.110  0.455-   7 2.77   6 2.80  24 2.85  62 2.86  57 2.90  13 2.94  53 2.98  50 3.14
                            29 3.15   4 3.16  41 3.36
  29  0.852  0.349  0.376-  24 2.73   6 2.80   7 2.83  53 2.94  61 2.98  49 3.07  28 3.15  63 3.25

  30  0.853  0.874  0.552-   8 2.70  23 2.75   5 2.81  13 2.94  57 2.97  62 2.98  27 3.00  50 3.02
                            54 3.06  64 3.48
  31  0.522  0.339  0.461-   2 2.77   4 2.80  17 2.85   7 2.85  35 2.86  11 2.87  46 2.95  16 2.99
                            10 3.02  43 3.11
  32  0.527  0.873  0.630-  72 1.97  65 2.08   3 2.67   8 2.71  36 2.76  18 2.79  12 2.80  45 3.01
                            44 3.11
  33  0.492  0.625  0.537-  35 2.71   3 2.80   2 2.81  17 2.82  16 2.84  12 2.88  44 2.89  45 2.92
                            25 2.97  21 2.99
  34  0.499  0.102  0.365-  11 2.83   1 2.83  15 2.84   4 2.87  43 2.91  46 2.98  22 2.99
  35  0.400  0.580  0.451-  33 2.71  25 2.78   9 2.84  31 2.86  37 2.88  21 2.89  39 2.93  19 2.94
                            17 3.03  43 3.08
  36  0.403  0.101  0.634-  72 1.97  70 2.03  67 2.05  65 2.16  32 2.76  10 2.91  26 2.94  20 2.95
                            38 3.02  18 3.09  40 3.18  44 3.25
  37  0.255  0.366  0.464-  35 2.88  16 2.91  21 2.95  47 3.02  60 3.04  43 3.05  55 3.08  46 3.08
                            52 3.15  40 3.18  39 3.39
  38  0.228  0.910  0.634-  73 1.90  65 2.05  67 2.09  56 2.85  36 3.02  59 3.05  48 3.08  54 3.11
                            44 3.19  40 3.25  45 3.28
  39  0.252  0.614  0.376-  35 2.93  19 2.97  15 2.98  47 3.07  43 3.07  51 3.07  55 3.08  37 3.39
                            49 3.53
  40  0.252  0.139  0.548-  67 2.37  16 2.90  44 3.05  60 3.08  52 3.09  20 3.10  46 3.15  36 3.18
                            37 3.18  48 3.20  56 3.23  38 3.25  50 3.56
  41  0.865  0.859  0.370-   6 2.96  24 3.00  61 3.05  13 3.05  57 3.06  49 3.12   1 3.35  28 3.36
                            51 3.49  63 3.53
  42  0.866  0.381  0.545-  14 2.89   5 2.94  23 2.98  62 3.03  58 3.06   7 3.08  50 3.12  63 3.13
                            53 3.17   2 3.38  52 3.44  27 3.46  64 3.53
  43  0.381  0.352  0.373-  34 2.91  22 2.97  37 3.05  39 3.07  35 3.08   9 3.10  31 3.11  55 3.26
                            11 3.27  46 3.29
  44  0.377  0.876  0.546-  65 2.33  33 2.89  25 2.97  19 2.99  40 3.05  21 3.06  32 3.11  10 3.11
                            45 3.12  38 3.19  36 3.25  12 3.31  46 3.32  56 3.32
  45  0.378  0.644  0.626-  69 2.12  65 2.25  21 2.90  33 2.92  32 3.01  20 3.10  26 3.12  44 3.12
                            38 3.28   3 3.29  59 3.34  16 3.43
  46  0.384  0.104  0.456-  31 2.95  19 2.96  22 2.97  34 2.98  25 2.99  10 3.05  37 3.08  40 3.15
                             4 3.24  60 3.27  43 3.29  44 3.32  15 3.43
  47  0.117  0.611  0.465-  21 2.95  37 3.02  39 3.07   5 3.08  19 3.12  56 3.14  53 3.14  49 3.15
                            57 3.17  52 3.22  63 3.42  51 3.52  55 3.80
  48  0.099  0.172  0.634-  66 2.08  67 2.20  50 3.00  20 3.03  38 3.08  52 3.08  58 3.11  40 3.20
                            54 3.23  64 3.32
  49  0.996  0.593  0.368-  63 3.05  29 3.07  41 3.12  47 3.15  51 3.16  55 3.23  53 3.44  39 3.53
                            61 3.65  57 3.82
  50  0.994  0.112  0.541-  48 3.00  30 3.02  57 3.10  42 3.12  28 3.14  52 3.18  53 3.21  56 3.23
                            60 3.28  64 3.31  54 3.49  40 3.56  62 3.61
  51  0.119  0.872  0.375-  60 3.00  22 3.02   6 3.05  39 3.07  19 3.08  57 3.16  49 3.16  41 3.49
                            47 3.52
  52  0.115  0.394  0.553-  21 2.96   5 3.03  48 3.08  40 3.09  59 3.13  20 3.15  37 3.15  50 3.18
                            47 3.22  53 3.25  58 3.31  42 3.44
  53  1.000  0.331  0.453-   6 2.91  29 2.94  28 2.98  60 3.06  63 3.08  55 3.09  47 3.14  42 3.17
                            50 3.21  52 3.25  49 3.44
  54  0.004  0.863  0.633-  73 2.18  68 2.19  59 2.95  30 3.06  56 3.08  27 3.11  38 3.11   5 3.13
                            48 3.23  64 3.28  50 3.49
  55  0.145  0.332  0.368-   6 3.05  37 3.08  39 3.08  53 3.09  22 3.10  49 3.23  60 3.24  43 3.26
                            47 3.80
  56  0.137  0.844  0.544-  38 2.85   5 2.93  21 3.08  54 3.08  57 3.10  47 3.14  40 3.23  50 3.23
                            19 3.24  59 3.30  44 3.32  60 3.51
  57  0.979  0.876  0.465-  28 2.90  30 2.97  41 3.06  50 3.10  56 3.10  63 3.11  60 3.13  51 3.16
                            47 3.17   5 3.27  13 3.27   6 3.37  49 3.82
  58  0.960  0.427  0.644-  66 2.07  68 2.17  27 2.78  59 3.06  42 3.06  14 3.08  48 3.11  64 3.12
                             5 3.30  52 3.31
  59  0.136  0.620  0.635-  69 2.13  73 2.17  68 2.34  54 2.95  38 3.05  58 3.06  52 3.13   5 3.18
                            20 3.23  56 3.30  45 3.34  21 3.36
  60  0.147  0.092  0.451-  51 3.00  37 3.04  53 3.06  19 3.07   6 3.08  40 3.08  22 3.10  57 3.13
                            55 3.24  46 3.27  50 3.28  56 3.51
  61  0.731  0.606  0.367-   1 2.93  17 2.95   9 2.95  11 2.96  29 2.98  41 3.05  63 3.17  49 3.65

  62  0.732  0.130  0.540-  28 2.86  18 2.94  12 2.97  30 2.98   4 2.99   2 3.00  10 3.02  42 3.03
                             7 3.06  64 3.26   8 3.41  50 3.61
  63  0.869  0.592  0.458-  23 2.85  13 2.98   5 3.02  49 3.05   7 3.07  53 3.08  57 3.11  42 3.13
                            61 3.17  29 3.25  47 3.42  17 3.44  41 3.53
  64  0.859  0.135  0.640-  71 2.06  66 2.14  14 2.99  58 3.12   8 3.16  18 3.21  62 3.26  54 3.28
                            50 3.31  48 3.32  30 3.48  42 3.53
  65  0.375  0.879  0.630-  38 2.05  32 2.08  36 2.16  45 2.25  44 2.33
  66  0.979  0.232  0.675-  58 2.07  48 2.08  64 2.14
  67  0.255  0.125  0.633-  36 2.05  38 2.09  48 2.20  20 2.21  40 2.37
  68  0.974  0.649  0.657-  27 2.08  58 2.17  54 2.19  59 2.34
  69  0.267  0.538  0.664-  20 2.00  45 2.12  59 2.13
  70  0.398  0.288  0.668-  26 1.94  20 2.03  36 2.03
  71  0.743  0.037  0.672-   8 2.06  64 2.06  18 2.11
  72  0.516  0.040  0.672-  32 1.97  36 1.97  18 2.03
  73  0.136  0.817  0.674-  38 1.90  59 2.17  54 2.18
  74  0.622  0.321  0.666-  26 1.97  14 2.06  18 2.07
 
  LATTYP: Found a simple orthorhombic cell.
 ALAT       =     9.5644817352
 B/A-ratio  =     1.4398428730
 C/A-ratio  =     2.8922184390
  
  Lattice vectors:
  
 A1 = (   0.0000000000,  -9.5644817352,   0.0000000000)
 A2 = ( -13.7713508606,   0.0000000000,   0.0000000000)
 A3 = (   0.0000000000,   0.0000000000, -27.6625704340)


Analysis of symmetry for initial positions (statically):
=====================================================================
 Subroutine PRICEL returns:
 Original cell was already a primitive cell.
 

 Routine SETGRP: Setting up the symmetry group for a 
 simple orthorhombic supercell.


 Subroutine GETGRP returns: Found  1 space group operations
 (whereof  1 operations were pure point group operations)
 out of a pool of  8 trial point group operations.


The static configuration has the point symmetry C_1 .


Analysis of symmetry for dynamics (positions and initial velocities):
=====================================================================
 Subroutine PRICEL returns:
 Original cell was already a primitive cell.
 

 Routine SETGRP: Setting up the symmetry group for a 
 simple orthorhombic supercell.


 Subroutine GETGRP returns: Found  1 space group operations
 (whereof  1 operations were pure point group operations)
 out of a pool of  8 trial point group operations.


The dynamic configuration has the point symmetry C_1 .


Analysis of constrained symmetry for selective dynamics:
=====================================================================
 Subroutine PRICEL returns:
 Original cell was already a primitive cell.
 

 Routine SETGRP: Setting up the symmetry group for a 
 simple orthorhombic supercell.


 Subroutine GETGRP returns: Found  1 space group operations
 (whereof  1 operations were pure point group operations)
 out of a pool of  8 trial point group operations.


The constrained configuration has the point symmetry C_1 .


 Subroutine INISYM returns: Found  1 space group operations
 (whereof  1 operations are pure point group operations),
 and found     1 'primitive' translations

 
 
 KPOINTS: k-points                                

Automatic generation of k-mesh.
Space group operators:
 irot       det(A)        alpha          n_x          n_y          n_z        tau_x        tau_y        tau_z
    1     1.000000     0.000000     1.000000     0.000000     0.000000     0.000000     0.000000     0.000000
 
 Subroutine IBZKPT returns following result:
 ===========================================
 
 Found      5 irreducible k-points:
 
 Following reciprocal coordinates:
            Coordinates               Weight
  0.000000  0.000000  0.000000      1.000000
  0.333333  0.000000  0.000000      2.000000
  0.000000  0.333333  0.000000      2.000000
  0.333333  0.333333  0.000000      2.000000
 -0.333333  0.333333  0.000000      2.000000
 
 Following cartesian coordinates:
            Coordinates               Weight
  0.000000  0.000000  0.000000      1.000000
  0.024205  0.000000  0.000000      2.000000
  0.000000  0.034851  0.000000      2.000000
  0.024205  0.034851  0.000000      2.000000
 -0.024205  0.034851  0.000000      2.000000
 


--------------------------------------------------------------------------------------------------------




 Dimension of arrays:
   k-points           NKPTS =      5   k-points in BZ     NKDIM =      5   number of bands    NBANDS=    242
   number of dos      NEDOS =    301   number of ions     NIONS =     74
   non local maximal  LDIM  =      6   non local SUM 2l+1 LMDIM =     18
   total plane-waves  NPLWV = 846720
   max r-space proj   IRMAX =      1   max aug-charges    IRDMAX=  25433
   dimension x,y,z NGX =    84 NGY =   60 NGZ =  168
   dimension x,y,z NGXF=   168 NGYF=  120 NGZF=  336
   support grid    NGXF=   168 NGYF=  120 NGZF=  336
   ions per type =               6  10   4  18  26  10
 NGX,Y,Z   is equivalent  to a cutoff of  10.14, 10.43, 10.10 a.u.
 NGXF,Y,Z  is equivalent  to a cutoff of  20.28, 20.86, 20.19 a.u.


 I would recommend the setting:
   dimension x,y,z NGX =    83 NGY =   57 NGZ =  166
 SYSTEM =  (110) surface                           
 POSCAR =  Al Nb Ta Ti Zr                          

 Startparameter for this run:
   NWRITE =      2    write-flag & timer
   PREC   = normal    normal or accurate (medium, high low for compatibility)
   ISTART =      0    job   : 0-new  1-cont  2-samecut
   ICHARG =      2    charge: 1-file 2-atom 10-const
   ISPIN  =      1    spin polarized calculation?
   LNONCOLLINEAR =      F non collinear calculations
   LSORBIT =      F    spin-orbit coupling
   INIWAV =      1    electr: 0-lowe 1-rand  2-diag
   LASPH  =      F    aspherical Exc in radial PAW
   METAGGA=      F    non-selfconsistent MetaGGA calc.

 Electronic Relaxation 1
   ENCUT  =  600.0 eV  44.10 Ry    6.64 a.u.  27.50 19.10 55.25*2*pi/ulx,y,z
   ENINI  =  600.0     initial cutoff
   ENAUG  =  605.4 eV  augmentation charge cutoff
   NELM   =     60;   NELMIN=  2; NELMDL= -5     # of ELM steps 
   EDIFF  = 0.1E-03   stopping-criterion for ELM
   LREAL  =      F    real-space projection
   NLSPLINE    = F    spline interpolate recip. space projectors
   LCOMPAT=      F    compatible to vasp.4.4
   GGA_COMPAT  = T    GGA compatible to vasp.4.4-vasp.4.6
   LMAXPAW     = -100 max onsite density
   LMAXMIX     =    2 max onsite mixed and CHGCAR
   VOSKOWN=      0    Vosko Wilk Nusair interpolation
   ROPT   =    0.00000   0.00000   0.00000   0.00000
   ROPT   =    0.00000   0.00000
 Ionic relaxation
   EDIFFG = -.1E-01   stopping-criterion for IOM
   NSW    =    150    number of steps for IOM
   NBLOCK =      1;   KBLOCK =    150    inner block; outer block 
   IBRION =      2    ionic relax: 0-MD 1-quasi-New 2-CG
   NFREE  =      1    steps in history (QN), initial steepest desc. (CG)
   ISIF   =      2    stress and relaxation
   IWAVPR =     11    prediction:  0-non 1-charg 2-wave 3-comb
   ISYM   =      2    0-nonsym 1-usesym 2-fastsym
   LCORR  =      T    Harris-Foulkes like correction to forces

   POTIM  = 0.1000    time-step for ionic-motion
   TEIN   =    0.0    initial temperature
   TEBEG  =    0.0;   TEEND  =   0.0 temperature during run
   SMASS  =  -3.00    Nose mass-parameter (am)
   estimated Nose-frequenzy (Omega)   =  0.10E-29 period in steps =****** mass=  -0.433E-26a.u.
   SCALEE = 1.0000    scale energy and forces
   NPACO  =    256;   APACO  = 16.0  distance and # of slots for P.C.
   PSTRESS=    0.0 pullay stress

  Mass of Ions in am
   POMASS =  26.98 92.91180.95 47.88 91.22 16.00
  Ionic Valenz
   ZVAL   =   3.00 13.00  5.00  4.00  4.00  6.00
  Atomic Wigner-Seitz radii
   RWIGS  =  -1.00 -1.00 -1.00 -1.00 -1.00 -1.00
  virtual crystal weights 
   VCA    =   1.00  1.00  1.00  1.00  1.00  1.00
   NELECT =     404.0000    total number of electrons
   NUPDOWN=      -1.0000    fix difference up-down

 DOS related values:
   EMIN   =  10.00;   EMAX   =-10.00  energy-range for DOS
   EFERMI =   0.00
   ISMEAR =     2;   SIGMA  =   0.10  broadening in eV -4-tet -1-fermi 0-gaus

 Electronic relaxation 2 (details)
   IALGO  =     68    algorithm
   LDIAG  =      T    sub-space diagonalisation (order eigenvalues)
   LSUBROT=      F    optimize rotation matrix (better conditioning)
   TURBO    =      0    0=normal 1=particle mesh
   IRESTART =      0    0=no restart 2=restart with 2 vectors
   NREBOOT  =      0    no. of reboots
   NMIN     =      0    reboot dimension
   EREF     =   0.00    reference energy to select bands
   IMIX   =      4    mixing-type and parameters
     AMIX     =   0.40;   BMIX     =  1.00
     AMIX_MAG =   1.60;   BMIX_MAG =  1.00
     AMIN     =   0.10
     WC   =   100.;   INIMIX=   1;  MIXPRE=   1;  MAXMIX= -45

 Intra band minimization:
   WEIMIN = 0.0010     energy-eigenvalue tresh-hold
   EBREAK =  0.10E-06  absolut break condition
   DEPER  =   0.30     relativ break condition  

   TIME   =   0.40     timestep for ELM

  volume/ion in A,a.u.               =      49.24       332.27
  Fermi-wavevector in a.u.,A,eV,Ry     =   0.786487  1.486246  8.416053  0.618562
  Thomas-Fermi vector in A             =   1.891036
 
 Write flags
   LWAVE  =      F    write WAVECAR
   LCHARG =      F    write CHGCAR
   LVTOT  =      F    write LOCPOT, total local potential
   LVHAR  =      F    write LOCPOT, Hartree potential only
   LELF   =      F    write electronic localiz. function (ELF)
   LORBIT =      0    0 simple, 1 ext, 2 COOP (PROOUT)


 Dipole corrections
   LMONO  =      F    monopole corrections only (constant potential shift)
   LDIPOL =      F    correct potential (dipole corrections)
   IDIPOL =      0    1-x, 2-y, 3-z, 4-all directions 
   EPSILON=  1.0000000 bulk dielectric constant

 Exchange correlation treatment:
   GGA     =    --    GGA type
   LEXCH   =     8    internal setting for exchange type
   VOSKOWN=      0    Vosko Wilk Nusair interpolation
   LHFCALC =     F    Hartree Fock is set to
   LHFONE  =     F    Hartree Fock one center treatment
   AEXX    =    0.0000 exact exchange contribution

 Linear response parameters
   LEPSILON=     F    determine dielectric tensor
   LRPA    =     F    only Hartree local field effects (RPA)
   LNABLA  =     F    use nabla operator in PAW spheres
   LVEL    =     F    velocity operator in full k-point grid
   LINTERFAST=   F  fast interpolation
   KINTER  =     0    interpolate to denser k-point grid
   CSHIFT  =0.1000    complex shift for real part using Kramers Kronig
   OMEGAMAX=  -1.0    maximum frequency
   DEG_THRESHOLD= 0.2000000E-02 threshold for treating states as degnerate
   RTIME   =    0.100 relaxation time in fs

 Orbital magnetization related:
   ORBITALMAG=     F  switch on orbital magnetization
   LCHIMAG   =     F  perturbation theory with respect to B field
   DQ        =  0.001000  dq finite difference perturbation B field



--------------------------------------------------------------------------------------------------------


 conjugate gradient relaxation of ions
   using selective dynamics as specified on POSCAR
 charge density and potential will be updated during run
 non-spin polarized calculation
 RMM-DIIS sequential band-by-band and
  variant of blocked Davidson during initial phase
 perform sub-space diagonalisation
    before iterative eigenvector-optimisation
 modified Broyden-mixing scheme, WC =      100.0
 initial mixing is a Kerker type mixing with AMIX =  0.4000 and BMIX =      1.0000
 Hartree-type preconditioning will be used
 using additional bands           40
 reciprocal scheme for non local part
 use partial core corrections
 calculate Harris-corrections to forces 
   (improved forces if not selfconsistent)
 use gradient corrections 
 use of overlap-Matrix (Vanderbilt PP)
 Methfessel and Paxton  Order N= 2 SIGMA  =   0.10


--------------------------------------------------------------------------------------------------------


  energy-cutoff  :      600.00
  volume of cell :     3643.60
      direct lattice vectors                 reciprocal lattice vectors
    13.771350861  0.000000000  0.000000000     0.072614518  0.000000000  0.000000000
     0.000000000  9.564481735  0.000000000     0.000000000  0.104553496  0.000000000
     0.000000000  0.000000000 27.662570434     0.000000000  0.000000000  0.036149931

  length of vectors
    13.771350861  9.564481735 27.662570434     0.072614518  0.104553496  0.036149931


 
 k-points in units of 2pi/SCALE and weight: k-points                                
   0.00000000  0.00000000  0.00000000       0.111
   0.02420484  0.00000000  0.00000000       0.222
   0.00000000  0.03485117  0.00000000       0.222
   0.02420484  0.03485117  0.00000000       0.222
  -0.02420484  0.03485117  0.00000000       0.222
 
 k-points in reciprocal lattice and weights: k-points                                
   0.00000000  0.00000000  0.00000000       0.111
   0.33333333  0.00000000  0.00000000       0.222
   0.00000000  0.33333333  0.00000000       0.222
   0.33333333  0.33333333  0.00000000       0.222
  -0.33333333  0.33333333  0.00000000       0.222
 
 position of ions in fractional coordinates (direct lattice) 
   0.62276447  0.86746430  0.37590333
   0.62124294  0.39922111  0.54542820
   0.61539365  0.62835825  0.61710587
   0.61839700  0.08363760  0.44965952
   0.97791188  0.64190690  0.55131189
   0.97963780  0.12056648  0.37767599
   0.72857308  0.34338307  0.45816820
   0.72301153  0.87259221  0.62550163
   0.51739597  0.60805875  0.36719826
   0.51301151  0.13611043  0.54452234
   0.61811078  0.34297293  0.36889183
   0.61656710  0.86708669  0.53981875
   0.74231148  0.84345710  0.46199300
   0.73982049  0.39352974  0.62799405
   0.39405298  0.84738672  0.36896032
   0.38832250  0.36991895  0.54584711
   0.61928761  0.60162497  0.45752798
   0.62686798  0.12661703  0.63303599
   0.27944195  0.83362269  0.45088327
   0.27946427  0.35303735  0.63104413
   0.27599000  0.59302861  0.53555695
   0.28324246  0.07725573  0.36149931
   0.74288653  0.63684603  0.53842585
   0.74002355  0.11549973  0.36646499
   0.49591756  0.83582580  0.45790018
   0.50288943  0.37252443  0.63121033
   0.83473985  0.64936119  0.62749640
   0.84724605  0.11017048  0.45460239
   0.85243583  0.34907103  0.37639265
   0.85262247  0.87371856  0.55242530
   0.52175105  0.33942658  0.46105252
   0.52652465  0.87305954  0.63046936
   0.49167094  0.62515323  0.53677955
   0.49943882  0.10200214  0.36464270
   0.40016663  0.58028412  0.45130253
   0.40291385  0.10065884  0.63354334
   0.25505811  0.36595738  0.46399110
   0.22793213  0.90991874  0.63376435
   0.25182599  0.61397660  0.37627308
   0.25161183  0.13876738  0.54790796
   0.86539888  0.85904646  0.37036829
   0.86608060  0.38118115  0.54484284
   0.38059813  0.35186696  0.37331264
   0.37681520  0.87623871  0.54626505
   0.37762374  0.64377357  0.62563708
   0.38408008  0.10357511  0.45579618
   0.11657381  0.61110574  0.46457054
   0.09870185  0.17243829  0.63403176
   0.99629861  0.59295863  0.36811234
   0.99429553  0.11228746  0.54131479
   0.11869311  0.87196302  0.37467704
   0.11494324  0.39405228  0.55341916
   0.99977952  0.33051389  0.45306987
   0.00414580  0.86311361  0.63349787
   0.14482272  0.33176249  0.36788561
   0.13697915  0.84416650  0.54406509
   0.97888047  0.87608504  0.46520830
   0.95975404  0.42679427  0.64405962
   0.13608937  0.61994734  0.63480384
   0.14721048  0.09173214  0.45072276
   0.73135245  0.60578495  0.36679988
   0.73210864  0.12975649  0.54040282
   0.86923259  0.59196168  0.45825814
   0.85916984  0.13502350  0.63992942
   0.37540519  0.87866618  0.63043091
   0.97943191  0.23235280  0.67548689
   0.25472438  0.12488952  0.63342703
   0.97382584  0.64908671  0.65713925
   0.26701695  0.53769801  0.66445191
   0.39823638  0.28787556  0.66799898
   0.74286546  0.03703751  0.67236560
   0.51648397  0.04028533  0.67168355
   0.13617666  0.81679339  0.67377798
   0.62198836  0.32076292  0.66622405
 
 position of ions in cartesian coordinates  (Angst):
   8.57630799  8.29684649 10.39845223
   8.55535447  3.81834301 15.08794612
   8.47480187  6.00992099 17.07073469
   8.51616202  0.79995025 12.43873821
  13.46716761  6.13950686 15.25070406
  13.49093588  1.15315590 10.44748880
  10.03343557  3.28428114 12.67411000
   9.95684543  8.34589230 17.30298292
   7.12524148  5.81576681 10.15764776
   7.06486152  1.30182575 15.06288759
   8.51222037  3.28035836 10.20449636
   8.49096188  8.29323477 14.93277431
  10.22263181  8.06723005 12.77991378
  10.18832749  3.76390797 17.37192951
   5.42664188  8.10481479 10.20639088
   5.34772535  3.53808308 15.09953407
   8.52842696  5.75423100 12.65640004
   8.63281889  1.21102623 17.51140270
   3.84829318  7.97316903 12.47259035
   3.84860055  3.37661924 17.45630263
   3.80075507  5.67201127 14.81488174
   3.90063135  0.73891098 10.00000000
  10.23055101  6.09110222 14.89424311
  10.19112400  1.10469510 10.13736353
   6.82945470  7.99424061 12.66669595
   6.92546682  3.56300306 17.46090016
  11.49549538  6.21080327 17.35816339
  11.66772263  1.05372358 12.57547056
  11.73919286  3.33868345 10.41198829
  11.74176314  8.35666522 15.28150385
   7.18521672  3.24643930 12.75389771
   7.25095567  8.35036204 17.44040311
   6.77097305  5.97926668 14.84870198
   6.87794726  0.97559764 10.08695433
   5.51083508  5.55011685 12.48418803
   5.54866796  0.96274967 17.52543739
   3.51249472  3.50019267 12.83518635
   3.13893329  8.70290116 17.53155100
   3.46798404  5.87236796 10.40868071
   3.46503479  1.32723811 15.15654266
  11.91771166  8.21633417 10.24533883
  11.92709979  3.64580013 15.07175333
   5.24135036  3.36542512 10.32678719
   5.18925438  8.38076915 15.11109552
   5.20038899  6.15736058 17.30672974
   5.28930157  0.99064225 12.60849381
   1.60537885  5.84490969 12.85121538
   1.35925786  1.64928286 17.53894828
  13.72037774  5.67134198 10.18293350
  13.69279261  1.07397136 14.97415841
   1.63456451  8.33987442 10.36453009
   1.58292368  3.76890579 15.30899637
  13.76831459  3.16119411 12.53307716
   0.05709328  8.25523434 17.52417937
   1.99440444  3.17313630 10.17666150
   1.88638796  8.07401510 15.05023877
  13.48050634  8.37929939 12.86885734
  13.21710965  4.08206602 17.81634465
   1.87413450  5.92947501 17.56030602
   2.02728715  0.87737042 12.46815015
  10.07171117  5.79401911 10.14662739
  10.08212498  1.24105360 14.94893111
  11.97050705  5.66180669 12.67659812
  11.83192929  1.29142985 17.70209272
   5.16983665  8.40398662 17.43933946
  13.48810044  2.22233414 18.68570356
   3.50789887  1.19450358 17.52221984
  13.41089731  6.20817796 18.17816083
   3.67718414  5.14280282 18.38044772
   5.48425295  2.75338051 18.47856882
  10.23026085  0.35424462 18.59936087
   7.11268192  0.38530830 18.58049348
   1.87533660  7.81220541 18.63843088
   8.56561999  3.06793106 18.42946960
 


--------------------------------------------------------------------------------------------------------


 k-point  1 :   0.0000 0.0000 0.0000  plane waves:  121663
 k-point  2 :   0.3333 0.0000 0.0000  plane waves:  121577
 k-point  3 :   0.0000 0.3333 0.0000  plane waves:  121622
 k-point  4 :   0.3333 0.3333 0.0000  plane waves:  121647
 k-point  5 :  -0.3333 0.3333 0.0000  plane waves:  121647

 maximum and minimum number of plane-waves per node :      2568     2510

 maximum number of plane-waves:    121663
 maximum index in each direction: 
   IXMAX=   27   IYMAX=   19   IZMAX=   55
   IXMIN=  -27   IYMIN=  -19   IZMIN=  -55

 WARNING: aliasing errors must be expected set NGX to 110 to avoid them
 WARNING: aliasing errors must be expected set NGY to  78 to avoid them
 WARNING: aliasing errors must be expected set NGZ to 222 to avoid them
 aliasing errors are usually negligible using standard VASP settings
 and one can safely disregard these warnings

 parallel 3D FFT for wavefunctions:
    minimum data exchange during FFTs selected (reduces bandwidth)
 parallel 3D FFT for charge:
    minimum data exchange during FFTs selected (reduces bandwidth)


 total amount of memory used by VASP on root node    80083. kBytes
========================================================================

   base      :      30000. kBytes
   nonl-proj :      13958. kBytes
   fftplans  :       3278. kBytes
   grid      :       7939. kBytes
   one-center:         31. kBytes
   wavefun   :      24877. kBytes
 
     INWAV:  cpu time    0.0001: real time    0.0002
 Broyden mixing: mesh for mixing (old mesh)
   NGX = 55   NGY = 39   NGZ =111
  (NGX  =168   NGY  =120   NGZ  =336)
  gives a total of 238095 points

 initial charge density was supplied:
 charge density of overlapping atoms calculated
 number of electron     404.0000000 magnetization 
 keeping initial charge density in first step


--------------------------------------------------------------------------------------------------------


 Maximum index for augmentation-charges         1033 (set IRDMAX)


--------------------------------------------------------------------------------------------------------


 First call to EWALD:  gamma=   0.115
 Maximum number of real-space cells 3x 4x 2
 Maximum number of reciprocal cells 3x 2x 5

 FEWALD executed in parallel
    FEWALD:  cpu time    0.0025: real time    0.0025


----------------------------------------- Iteration    1(   1)  ---------------------------------------


    POTLOK:  cpu time    0.0638: real time    0.0689
    SETDIJ:  cpu time    0.0116: real time    0.0146
     EDDAV:  cpu time   10.2402: real time   10.2823
       DOS:  cpu time    0.0015: real time    0.0015
    --------------------------------------------
      LOOP:  cpu time   10.3190: real time   10.3843

 eigenvalue-minimisations  :  2548
 total energy-change (2. order) : 0.4871774E+04  (-0.1502713E+05)
 number of electron     404.0000000 magnetization 
 augmentation part      404.0000000 magnetization 

 Free energy of the ion-electron system (eV)
  ---------------------------------------------------
  alpha Z        PSCENC =       621.76499076
  Ewald energy   TEWEN  =     86515.63409846
  -Hartree energ DENC   =   -108494.95404880
  -exchange      EXHF   =         0.00000000
  -V(xc)+E(xc)   XCENC  =     -2810.98980646
  PAW double counting   =     22904.77589207   -18831.52881948
  entropy T*S    EENTRO =         0.00515941
  eigenvalues    EBANDS =       517.44427410
  atomic energy  EATOM  =     24449.62236510
  Solvation  Ediel_sol  =         0.00000000
  ---------------------------------------------------
  free energy    TOTEN  =      4871.77410517 eV

  energy without entropy =     4871.76894575  energy(sigma->0) =     4871.77281531


--------------------------------------------------------------------------------------------------------




----------------------------------------- Iteration    1(   2)  ---------------------------------------


     EDDAV:  cpu time   10.4521: real time   10.4540
       DOS:  cpu time    0.0015: real time    0.0015
    --------------------------------------------
      LOOP:  cpu time   10.4550: real time   10.4582

 eigenvalue-minimisations  :  2628
 total energy-change (2. order) :-0.4306049E+04  (-0.4173529E+04)
 number of electron     404.0000000 magnetization 
 augmentation part      404.0000000 magnetization 

 Free energy of the ion-electron system (eV)
  ---------------------------------------------------
  alpha Z        PSCENC =       621.76499076
  Ewald energy   TEWEN  =     86515.63409846
  -Hartree energ DENC   =   -108494.95404880
  -exchange      EXHF   =         0.00000000
  -V(xc)+E(xc)   XCENC  =     -2810.98980646
  PAW double counting   =     22904.77589207   -18831.52881948
  entropy T*S    EENTRO =        -0.00450987
  eigenvalues    EBANDS =     -3788.59499956
  atomic energy  EATOM  =     24449.62236510
  Solvation  Ediel_sol  =         0.00000000
  ---------------------------------------------------
  free energy    TOTEN  =       565.72516222 eV

  energy without entropy =      565.72967209  energy(sigma->0) =      565.72628968


--------------------------------------------------------------------------------------------------------




----------------------------------------- Iteration    1(   3)  ---------------------------------------


     EDDAV:  cpu time   15.9584: real time   15.9626
       DOS:  cpu time    0.0015: real time    0.0015
    --------------------------------------------
      LOOP:  cpu time   15.9612: real time   15.9670

 eigenvalue-minimisations  :  4448
 total energy-change (2. order) :-0.1089754E+04  (-0.1058965E+04)
 number of electron     404.0000000 magnetization 
 augmentation part      404.0000000 magnetization 

 Free energy of the ion-electron system (eV)
  ---------------------------------------------------
  alpha Z        PSCENC =       621.76499076
  Ewald energy   TEWEN  =     86515.63409846
  -Hartree energ DENC   =   -108494.95404880
  -exchange      EXHF   =         0.00000000
  -V(xc)+E(xc)   XCENC  =     -2810.98980646
  PAW double counting   =     22904.77589207   -18831.52881948
  entropy T*S    EENTRO =        -0.00159388
  eigenvalues    EBANDS =     -4878.35204570
  atomic energy  EATOM  =     24449.62236510
  Solvation  Ediel_sol  =         0.00000000
  ---------------------------------------------------
  free energy    TOTEN  =      -524.02896792 eV

  energy without entropy =     -524.02737404  energy(sigma->0) =     -524.02856945


--------------------------------------------------------------------------------------------------------




----------------------------------------- Iteration    1(   4)  ---------------------------------------


     EDDAV:  cpu time   13.7799: real time   13.7923
       DOS:  cpu time    0.0015: real time    0.0015
    --------------------------------------------
      LOOP:  cpu time   13.7824: real time   13.7964

 eigenvalue-minimisations  :  3728
 total energy-change (2. order) :-0.1555740E+03  (-0.1502622E+03)
 number of electron     404.0000000 magnetization 
 augmentation part      404.0000000 magnetization 

 Free energy of the ion-electron system (eV)
  ---------------------------------------------------
  alpha Z        PSCENC =       621.76499076
  Ewald energy   TEWEN  =     86515.63409846
  -Hartree energ DENC   =   -108494.95404880
  -exchange      EXHF   =         0.00000000
  -V(xc)+E(xc)   XCENC  =     -2810.98980646
  PAW double counting   =     22904.77589207   -18831.52881948
  entropy T*S    EENTRO =        -0.00011547
  eigenvalues    EBANDS =     -5033.92752271
  atomic energy  EATOM  =     24449.62236510
  Solvation  Ediel_sol  =         0.00000000
  ---------------------------------------------------
  free energy    TOTEN  =      -679.60296653 eV

  energy without entropy =     -679.60285106  energy(sigma->0) =     -679.60293766


--------------------------------------------------------------------------------------------------------




----------------------------------------- Iteration    1(   5)  ---------------------------------------


     EDDAV:  cpu time   16.2516: real time   16.2617
       DOS:  cpu time    0.0015: real time    0.0015
    CHARGE:  cpu time    0.2276: real time    0.2287
    MIXING:  cpu time    0.0051: real time    0.0068
    --------------------------------------------
      LOOP:  cpu time   16.4871: real time   16.5014

 eigenvalue-minimisations  :  4544
 total energy-change (2. order) :-0.1698644E+02  (-0.1659876E+02)
 number of electron     403.9999968 magnetization 
 augmentation part       48.0251293 magnetization 

 Broyden mixing:
  rms(total) = 0.72654E+01    rms(broyden)= 0.72653E+01
  rms(prec ) = 0.77526E+01
  weight for this iteration     100.00

 Free energy of the ion-electron system (eV)
  ---------------------------------------------------
  alpha Z        PSCENC =       621.76499076
  Ewald energy   TEWEN  =     86515.63409846
  -Hartree energ DENC   =   -108494.95404880
  -exchange      EXHF   =         0.00000000
  -V(xc)+E(xc)   XCENC  =     -2810.98980646
  PAW double counting   =     22904.77589207   -18831.52881948
  entropy T*S    EENTRO =         0.00269129
  eigenvalues    EBANDS =     -5050.91676489
  atomic energy  EATOM  =     24449.62236510
  Solvation  Ediel_sol  =         0.00000000
  ---------------------------------------------------
  free energy    TOTEN  =      -696.58940195 eV

  energy without entropy =     -696.59209324  energy(sigma->0) =     -696.59007477


--------------------------------------------------------------------------------------------------------




----------------------------------------- Iteration    1(   6)  ---------------------------------------


    POTLOK:  cpu time    0.0496: real time    0.0496
    SETDIJ:  cpu time    0.0068: real time    0.0068
    EDDIAG:  cpu time    0.9163: real time    0.9267
  RMM-DIIS:  cpu time   10.0153: real time   10.0154
    ORTHCH:  cpu time    0.2405: real time    0.2647
       DOS:  cpu time    0.0014: real time    0.0014
    CHARGE:  cpu time    0.2258: real time    0.2258
    MIXING:  cpu time    0.0034: real time    0.0060
    --------------------------------------------
      LOOP:  cpu time   11.4610: real time   11.5007

 eigenvalue-minimisations  :  3790
 total energy-change (2. order) :-0.4118688E+02  (-0.1522604E+03)
 number of electron     403.9999977 magnetization 
 augmentation part       62.4225284 magnetization 

 Broyden mixing:
  rms(total) = 0.44786E+01    rms(broyden)= 0.44784E+01
  rms(prec ) = 0.59320E+01
  weight for this iteration     100.00

 eigenvalues of (default mixing * dielectric matrix)
  average eigenvalue GAMMA=   0.7800
  0.7800

 Free energy of the ion-electron system (eV)
  ---------------------------------------------------
  alpha Z        PSCENC =       621.76499076
  Ewald energy   TEWEN  =     86515.63409846
  -Hartree energ DENC   =   -109271.00077421
  -exchange      EXHF   =         0.00000000
  -V(xc)+E(xc)   XCENC  =     -2785.30936960
  PAW double counting   =     27122.81863706   -23054.26193123
  entropy T*S    EENTRO =        -0.03346666
  eigenvalues    EBANDS =     -4337.01082924
  atomic energy  EATOM  =     24449.62236510
  Solvation  Ediel_sol  =         0.00000000
  ---------------------------------------------------
  free energy    TOTEN  =      -737.77627956 eV

  energy without entropy =     -737.74281290  energy(sigma->0) =     -737.76791290


--------------------------------------------------------------------------------------------------------




----------------------------------------- Iteration    1(   7)  ---------------------------------------


    POTLOK:  cpu time    0.0491: real time    0.0491
    SETDIJ:  cpu time    0.0066: real time    0.0066
    EDDIAG:  cpu time    0.9083: real time    0.9149
  RMM-DIIS:  cpu time    8.2845: real time    8.2846
    ORTHCH:  cpu time    0.2584: real time    0.2650
       DOS:  cpu time    0.0015: real time    0.0015
    CHARGE:  cpu time    0.2251: real time    0.2251
    MIXING:  cpu time    0.0020: real time    0.0025
    --------------------------------------------
      LOOP:  cpu time    9.7370: real time    9.7533

 eigenvalue-minimisations  :  3116
 total energy-change (2. order) : 0.4421305E+02  (-0.3554191E+02)
 number of electron     403.9999979 magnetization 
 augmentation part       58.1415227 magnetization 

 Broyden mixing:
  rms(total) = 0.39487E+01    rms(broyden)= 0.39487E+01
  rms(prec ) = 0.67393E+01
  weight for this iteration     100.00

 eigenvalues of (default mixing * dielectric matrix)
  average eigenvalue GAMMA=   0.6956
  1.0402  0.3510

 Free energy of the ion-electron system (eV)
  ---------------------------------------------------
  alpha Z        PSCENC =       621.76499076
  Ewald energy   TEWEN  =     86515.63409846
  -Hartree energ DENC   =   -108767.59112102
  -exchange      EXHF   =         0.00000000
  -V(xc)+E(xc)   XCENC  =     -2788.99019576
  PAW double counting   =     27758.30694377   -23701.55188344
  entropy T*S    EENTRO =         0.00412290
  eigenvalues    EBANDS =     -4780.76254712
  atomic energy  EATOM  =     24449.62236510
  Solvation  Ediel_sol  =         0.00000000
  ---------------------------------------------------
  free energy    TOTEN  =      -693.56322634 eV

  energy without entropy =     -693.56734924  energy(sigma->0) =     -693.56425706


--------------------------------------------------------------------------------------------------------




----------------------------------------- Iteration    1(   8)  ---------------------------------------


    POTLOK:  cpu time    0.0493: real time    0.0493
    SETDIJ:  cpu time    0.0065: real time    0.0065
    EDDIAG:  cpu time    0.9302: real time    0.9341
  RMM-DIIS:  cpu time    9.8416: real time    9.8417
    ORTHCH:  cpu time    0.2573: real time    0.2649
       DOS:  cpu time    0.0015: real time    0.0015
    CHARGE:  cpu time    0.2249: real time    0.2249
    MIXING:  cpu time    0.0019: real time    0.0019
    --------------------------------------------
      LOOP:  cpu time   11.3150: real time   11.3289

 eigenvalue-minimisations  :  3755
 total energy-change (2. order) : 0.3367042E+02  (-0.1954702E+02)
 number of electron     403.9999977 magnetization 
 augmentation part       52.0263108 magnetization 

 Broyden mixing:
  rms(total) = 0.32617E+01    rms(broyden)= 0.32616E+01
  rms(prec ) = 0.53806E+01
  weight for this iteration     100.00

 eigenvalues of (default mixing * dielectric matrix)
  average eigenvalue GAMMA=   0.6590
  1.3163  0.4439  0.2167

 Free energy of the ion-electron system (eV)
  ---------------------------------------------------
  alpha Z        PSCENC =       621.76499076
  Ewald energy   TEWEN  =     86515.63409846
  -Hartree energ DENC   =   -108983.79425402
  -exchange      EXHF   =         0.00000000
  -V(xc)+E(xc)   XCENC  =     -2789.61094385
  PAW double counting   =     28635.04124802   -24581.50494647
  entropy T*S    EENTRO =        -0.00864644
  eigenvalues    EBANDS =     -4527.03672163
  atomic energy  EATOM  =     24449.62236510
  Solvation  Ediel_sol  =         0.00000000
  ---------------------------------------------------
  free energy    TOTEN  =      -659.89281008 eV

  energy without entropy =     -659.88416363  energy(sigma->0) =     -659.89064847


--------------------------------------------------------------------------------------------------------




----------------------------------------- Iteration    1(   9)  ---------------------------------------


    POTLOK:  cpu time    0.0493: real time    0.0493
    SETDIJ:  cpu time    0.0065: real time    0.0065
    EDDIAG:  cpu time    0.9257: real time    0.9338
  RMM-DIIS:  cpu time    9.0623: real time    9.0624
    ORTHCH:  cpu time    0.2625: real time    0.2653
       DOS:  cpu time    0.0016: real time    0.0016
    CHARGE:  cpu time    0.2240: real time    0.2240
    MIXING:  cpu time    0.0022: real time    0.0028
    --------------------------------------------
      LOOP:  cpu time   10.5356: real time   10.5500

 eigenvalue-minimisations  :  3448
 total energy-change (2. order) : 0.4273445E+02  (-0.6328361E+01)
 number of electron     403.9999976 magnetization 
 augmentation part       52.1138790 magnetization 

 Broyden mixing:
  rms(total) = 0.18733E+01    rms(broyden)= 0.18733E+01
  rms(prec ) = 0.21603E+01
  weight for this iteration     100.00

 eigenvalues of (default mixing * dielectric matrix)
  average eigenvalue GAMMA=   0.6943
  1.6183  0.4826  0.4826  0.1938

 Free energy of the ion-electron system (eV)
  ---------------------------------------------------
  alpha Z        PSCENC =       621.76499076
  Ewald energy   TEWEN  =     86515.63409846
  -Hartree energ DENC   =   -108988.05474056
  -exchange      EXHF   =         0.00000000
  -V(xc)+E(xc)   XCENC  =     -2787.07705898
  PAW double counting   =     29507.92882191   -25449.53683790
  entropy T*S    EENTRO =        -0.00007950
  eigenvalues    EBANDS =     -4487.43991617
  atomic energy  EATOM  =     24449.62236510
  Solvation  Ediel_sol  =         0.00000000
  ---------------------------------------------------
  free energy    TOTEN  =      -617.15835689 eV

  energy without entropy =     -617.15827738  energy(sigma->0) =     -617.15833701


--------------------------------------------------------------------------------------------------------




----------------------------------------- Iteration    1(  10)  ---------------------------------------


    POTLOK:  cpu time    0.0535: real time    0.0535
    SETDIJ:  cpu time    0.0066: real time    0.0066
    EDDIAG:  cpu time    0.9384: real time    0.9428
  RMM-DIIS:  cpu time    9.2409: real time    9.2409
    ORTHCH:  cpu time    0.2592: real time    0.2657
       DOS:  cpu time    0.0016: real time    0.0016
    CHARGE:  cpu time    0.2250: real time    0.2250
    MIXING:  cpu time    0.0022: real time    0.0022
    --------------------------------------------
      LOOP:  cpu time   10.7290: real time   10.7425

 eigenvalue-minimisations  :  3514
 total energy-change (2. order) : 0.6608332E+01  (-0.3752204E+01)
 number of electron     403.9999978 magnetization 
 augmentation part       55.3191969 magnetization 

 Broyden mixing:
  rms(total) = 0.10538E+01    rms(broyden)= 0.10538E+01
  rms(prec ) = 0.13323E+01
  weight for this iteration     100.00

 eigenvalues of (default mixing * dielectric matrix)
  average eigenvalue GAMMA=   0.7174
  1.8368  0.6148  0.6148  0.3343  0.1865

 Free energy of the ion-electron system (eV)
  ---------------------------------------------------
  alpha Z        PSCENC =       621.76499076
  Ewald energy   TEWEN  =     86515.63409846
  -Hartree energ DENC   =   -109037.64196876
  -exchange      EXHF   =         0.00000000
  -V(xc)+E(xc)   XCENC  =     -2782.65330782
  PAW double counting   =     30234.30194322   -26169.56346544
  entropy T*S    EENTRO =        -0.00325607
  eigenvalues    EBANDS =     -4442.01142408
  atomic energy  EATOM  =     24449.62236510
  Solvation  Ediel_sol  =         0.00000000
  ---------------------------------------------------
  free energy    TOTEN  =      -610.55002462 eV

  energy without entropy =     -610.54676855  energy(sigma->0) =     -610.54921060


--------------------------------------------------------------------------------------------------------




----------------------------------------- Iteration    1(  11)  ---------------------------------------


    POTLOK:  cpu time    0.0496: real time    0.0496
    SETDIJ:  cpu time    0.0065: real time    0.0065
    EDDIAG:  cpu time    0.9313: real time    0.9388
  RMM-DIIS:  cpu time    9.9640: real time    9.9641
    ORTHCH:  cpu time    0.2480: real time    0.2646
       DOS:  cpu time    0.0016: real time    0.0016
    CHARGE:  cpu time    0.2239: real time    0.2239
    MIXING:  cpu time    0.0022: real time    0.0022
    --------------------------------------------
      LOOP:  cpu time   11.4287: real time   11.4558

 eigenvalue-minimisations  :  3767
 total energy-change (2. order) :-0.5799064E+00  (-0.2707296E+01)
 number of electron     403.9999978 magnetization 
 augmentation part       56.0077533 magnetization 

 Broyden mixing:
  rms(total) = 0.10702E+01    rms(broyden)= 0.10702E+01
  rms(prec ) = 0.14425E+01
  weight for this iteration     100.00

 eigenvalues of (default mixing * dielectric matrix)
  average eigenvalue GAMMA=   0.6807
  1.8874  0.7546  0.6007  0.3892  0.1863  0.2658

 Free energy of the ion-electron system (eV)
  ---------------------------------------------------
  alpha Z        PSCENC =       621.76499076
  Ewald energy   TEWEN  =     86515.63409846
  -Hartree energ DENC   =   -109094.60443876
  -exchange      EXHF   =         0.00000000
  -V(xc)+E(xc)   XCENC  =     -2780.01344907
  PAW double counting   =     30895.87755204   -26827.95748335
  entropy T*S    EENTRO =        -0.00684689
  eigenvalues    EBANDS =     -4391.44671927
  atomic energy  EATOM  =     24449.62236510
  Solvation  Ediel_sol  =         0.00000000
  ---------------------------------------------------
  free energy    TOTEN  =      -611.12993098 eV

  energy without entropy =     -611.12308409  energy(sigma->0) =     -611.12821926


--------------------------------------------------------------------------------------------------------




----------------------------------------- Iteration    1(  12)  ---------------------------------------


    POTLOK:  cpu time    0.0496: real time    0.0496
    SETDIJ:  cpu time    0.0066: real time    0.0066
    EDDIAG:  cpu time    0.9293: real time    0.9339
  RMM-DIIS:  cpu time    9.6763: real time    9.6763
    ORTHCH:  cpu time    0.2628: real time    0.2648
       DOS:  cpu time    0.0015: real time    0.0015
    CHARGE:  cpu time    0.2250: real time    0.2250
    MIXING:  cpu time    0.0024: real time    0.0024
    --------------------------------------------
      LOOP:  cpu time   11.1551: real time   11.1642

 eigenvalue-minimisations  :  3666
 total energy-change (2. order) : 0.2397100E+01  (-0.9924308E+00)
 number of electron     403.9999978 magnetization 
 augmentation part       55.8632989 magnetization 

 Broyden mixing:
  rms(total) = 0.58876E+00    rms(broyden)= 0.58876E+00
  rms(prec ) = 0.79267E+00
  weight for this iteration     100.00

 eigenvalues of (default mixing * dielectric matrix)
  average eigenvalue GAMMA=   0.6714
  1.9535  0.9607  0.5123  0.5123  0.3487  0.1882  0.2238

 Free energy of the ion-electron system (eV)
  ---------------------------------------------------
  alpha Z        PSCENC =       621.76499076
  Ewald energy   TEWEN  =     86515.63409846
  -Hartree energ DENC   =   -109118.58894492
  -exchange      EXHF   =         0.00000000
  -V(xc)+E(xc)   XCENC  =     -2779.22862716
  PAW double counting   =     31099.05181536   -27029.45969960
  entropy T*S    EENTRO =         0.00466150
  eigenvalues    EBANDS =     -4367.53349071
  atomic energy  EATOM  =     24449.62236510
  Solvation  Ediel_sol  =         0.00000000
  ---------------------------------------------------
  free energy    TOTEN  =      -608.73283120 eV

[...]
  Total     -32.89599   -15.88187   -16.27421    -3.82040     5.37555    -1.27217
  in kB     -14.46515    -6.98364    -7.15616    -1.67992     2.36376    -0.55941
  external pressure =       -9.53 kB  Pullay stress =        0.00 kB


 VOLUME and BASIS-vectors are now :
 -----------------------------------------------------------------------------
  energy-cutoff  :      600.00
  volume of cell :     3643.60
      direct lattice vectors                 reciprocal lattice vectors
    13.771350861  0.000000000  0.000000000     0.072614518  0.000000000  0.000000000
     0.000000000  9.564481735  0.000000000     0.000000000  0.104553496  0.000000000
     0.000000000  0.000000000 27.662570434     0.000000000  0.000000000  0.036149931

  length of vectors
    13.771350861  9.564481735 27.662570434     0.072614518  0.104553496  0.036149931


 FORCES acting on ions
    electron-ion (+dipol)            ewald-force                    non-local-force                 convergence-correction
 -----------------------------------------------------------------------------------------------
   -.477E+02 -.345E+02 0.419E+03   0.476E+02 0.343E+02 -.418E+03   0.888E-01 0.916E-01 -.801E+00   0.109E-01 0.740E-02 0.541E-02
   -.222E+02 -.382E+02 -.521E+02   0.224E+02 0.384E+02 0.514E+02   -.163E+00 -.111E+00 0.698E+00   0.110E-01 -.976E-03 0.225E-01
   0.282E+02 0.243E+02 -.303E+03   -.274E+02 -.223E+02 0.302E+03   -.784E+00 -.201E+01 0.124E+01   0.874E-02 -.851E-03 0.944E-02
   0.157E+01 0.655E+01 0.243E+03   -.149E+01 -.635E+01 -.243E+03   -.148E+00 -.278E+00 -.299E+00   0.118E-01 0.171E-02 0.124E-01
   -.554E+02 0.767E+01 -.276E+02   0.551E+02 -.734E+01 0.272E+02   0.312E+00 -.330E+00 0.411E+00   -.142E-01 0.867E-03 0.234E-01
   -.450E+02 0.475E+01 0.363E+03   0.443E+02 -.415E+01 -.361E+03   0.672E+00 -.994E+00 -.225E+01   -.162E-01 0.145E-02 0.619E-02
   -.378E+03 -.116E+00 0.686E+03   0.378E+03 0.916E+00 -.687E+03   0.205E+00 -.350E+00 0.859E+00   0.247E-01 -.125E-01 0.662E-01
   -.293E+03 0.246E+03 -.134E+04   0.291E+03 -.244E+03 0.134E+04   0.175E+01 -.172E+01 0.339E+01   0.206E-01 -.174E-01 0.776E-02
   0.966E+02 -.843E+01 0.180E+04   -.963E+02 0.738E+01 -.179E+04   -.531E+00 0.586E+00 -.433E+01   0.592E-01 0.145E-02 0.472E-02
   0.133E+03 0.524E+00 -.703E+02   -.133E+03 -.448E+00 0.714E+02   0.445E+00 -.750E-01 -.116E+01   0.446E-01 0.244E-02 0.101E+00
   -.562E+02 0.140E+03 0.186E+04   0.570E+02 -.139E+03 -.186E+04   -.530E+00 -.413E+00 -.271E+01   0.622E-01 -.376E-01 0.196E-01
   0.610E+02 0.127E+03 -.107E+03   -.602E+02 -.128E+03 0.107E+03   -.807E+00 0.385E+00 -.171E+00   0.439E-01 0.502E-02 0.105E+00
   -.407E+03 -.130E+02 0.945E+03   0.408E+03 0.118E+02 -.944E+03   -.745E+00 0.156E+01 -.176E+01   0.157E-01 0.849E-02 0.835E-01
   -.335E+03 -.165E+03 -.121E+04   0.336E+03 0.164E+03 0.121E+04   -.799E+00 0.104E+01 0.233E+01   0.255E-01 0.151E-01 0.119E-01
   0.292E+03 -.117E+03 0.171E+04   -.292E+03 0.117E+03 -.170E+04   0.270E+00 -.350E+00 -.418E+01   0.419E-01 0.161E-01 0.666E-02
   0.334E+03 -.154E+03 -.102E+03   -.335E+03 0.154E+03 0.103E+03   0.384E+00 -.214E+00 -.554E+00   0.508E-01 -.237E-01 0.129E+00
   -.168E+02 0.180E+01 0.271E+03   0.163E+02 -.172E+01 -.271E+03   0.524E+00 -.192E+00 -.184E+00   0.245E-01 -.159E-02 0.325E-01
   -.420E+02 -.289E+02 -.493E+03   0.415E+02 0.286E+02 0.492E+03   0.519E+00 0.268E+00 0.915E+00   0.579E-02 0.311E-02 0.872E-02
   0.173E+03 -.568E+01 0.263E+03   -.172E+03 0.561E+01 -.264E+03   -.136E+01 0.538E+00 0.556E+00   -.151E-02 0.101E-01 0.306E-01
   0.179E+03 -.377E+02 -.462E+03   -.177E+03 0.393E+02 0.459E+03   -.135E+01 -.160E+01 0.261E+01   0.264E-02 -.280E-02 0.215E-01
   0.131E+03 -.528E+02 -.375E+01   -.130E+03 0.529E+02 0.344E+01   -.476E+00 -.860E-01 0.271E+00   -.265E-02 0.245E-02 0.404E-01
   0.116E+03 -.556E+02 0.520E+03   -.115E+03 0.556E+02 -.517E+03   -.841E+00 -.257E+00 -.265E+01   0.365E-02 -.181E-02 0.896E-03
   -.111E+03 0.663E+02 -.513E+02   0.111E+03 -.657E+02 0.513E+02   0.239E+00 -.625E+00 -.606E-02   0.827E-02 -.931E-03 0.315E-01
   -.998E+02 0.600E+02 0.572E+03   0.991E+02 -.595E+02 -.568E+03   0.464E+00 -.561E+00 -.286E+01   0.310E-02 0.399E-02 0.817E-02
   0.727E+02 -.166E+02 0.238E+03   -.737E+02 0.159E+02 -.238E+03   0.101E+01 0.975E+00 -.602E+00   0.182E-01 0.836E-02 0.234E-01
   0.175E+02 -.122E+03 -.407E+03   -.180E+02 0.121E+03 0.405E+03   0.496E+00 0.781E+00 0.148E+01   0.971E-02 -.279E-02 0.150E-01
   -.672E+02 0.119E+02 -.380E+03   0.672E+02 -.129E+02 0.377E+03   0.312E-01 0.965E+00 0.293E+01   -.370E-02 -.309E-02 0.473E-02
   -.160E+03 0.765E+01 0.259E+03   0.159E+03 -.750E+01 -.260E+03   0.308E+00 -.334E+00 0.300E-01   -.948E-02 0.259E-02 0.183E-01
   -.149E+03 -.537E+01 0.532E+03   0.148E+03 0.529E+01 -.528E+03   0.697E+00 -.527E-02 -.255E+01   -.123E-01 -.872E-02 0.932E-02
   -.190E+03 -.106E+02 -.675E+02   0.189E+03 0.105E+02 0.676E+02   0.108E+01 0.121E+00 -.202E+00   -.553E-02 -.210E-02 0.276E-01
   0.811E+02 0.448E+01 0.244E+03   -.813E+02 -.409E+01 -.245E+03   0.899E-01 -.191E+00 -.211E+00   0.214E-01 -.794E-02 0.238E-01
   0.425E+02 0.127E+03 -.448E+03   -.417E+02 -.127E+03 0.446E+03   -.891E+00 -.316E+00 0.203E+01   0.697E-02 0.131E-02 0.104E-01
   0.580E+02 0.413E-01 -.541E+02   -.583E+02 0.397E+00 0.536E+02   0.276E+00 -.439E+00 0.466E+00   0.189E-01 0.480E-03 0.370E-01
   0.339E+02 -.115E+01 0.551E+03   -.346E+02 0.108E+01 -.549E+03   0.630E+00 0.534E-01 -.248E+01   0.219E-01 0.907E-03 0.454E-02
   0.128E+03 0.115E+02 0.235E+03   -.127E+03 -.118E+02 -.235E+03   -.831E+00 0.581E+00 -.354E+00   0.153E-01 0.165E-02 0.220E-01
   0.848E+02 0.241E+02 -.404E+03   -.831E+02 -.228E+02 0.402E+03   -.173E+01 -.132E+01 0.146E+01   0.638E-02 -.673E-03 0.142E-01
   0.126E+03 0.711E+01 0.262E+03   -.126E+03 -.699E+01 -.261E+03   0.119E+00 -.273E+00 -.661E+00   -.393E-02 -.820E-02 0.276E-01
   0.767E+02 0.210E+02 -.348E+03   -.779E+02 -.217E+02 0.345E+03   0.125E+01 0.675E+00 0.226E+01   -.397E-02 0.867E-03 0.159E-01
   0.126E+03 0.394E+02 0.481E+03   -.126E+03 -.392E+02 -.479E+03   0.138E+00 -.417E+00 -.268E+01   -.299E-02 0.349E-02 -.569E-03
   0.145E+03 0.352E+02 0.960E+01   -.145E+03 -.344E+02 -.989E+01   -.137E+00 -.823E+00 0.248E+00   -.277E-02 -.397E-02 0.336E-01
   -.977E+02 -.135E+01 0.538E+03   0.980E+02 0.130E+01 -.534E+03   -.451E+00 0.479E-01 -.306E+01   -.114E-01 0.786E-02 0.879E-02
   -.145E+03 0.146E+01 -.370E+02   0.145E+03 -.141E+01 0.374E+02   0.407E+00 -.483E-01 -.449E+00   -.890E-02 0.137E-02 0.282E-01
   0.129E+03 0.288E+02 0.507E+03   -.128E+03 -.290E+02 -.505E+03   -.268E+00 0.370E+00 -.249E+01   0.146E-01 -.565E-02 0.214E-03
   0.135E+03 0.380E+02 -.161E+02   -.135E+03 -.380E+02 0.155E+02   -.759E+00 0.375E-02 0.598E+00   0.748E-02 0.543E-02 0.344E-01
   0.121E+02 -.452E+01 -.379E+03   -.128E+02 0.342E+01 0.376E+03   0.625E+00 0.109E+01 0.268E+01   0.723E-02 0.712E-04 0.202E-01
   0.119E+03 -.630E+01 0.277E+03   -.119E+03 0.600E+01 -.277E+03   0.563E+00 0.338E+00 -.154E+00   0.133E-01 -.229E-02 0.251E-01
   0.389E+02 0.229E+01 0.217E+03   -.387E+02 -.223E+01 -.218E+03   -.198E+00 -.483E-01 0.901E-02   -.192E-01 0.312E-02 0.278E-01
   0.327E+02 0.511E+01 -.342E+03   -.340E+02 -.427E+01 0.340E+03   0.132E+01 -.843E+00 0.211E+01   -.843E-02 -.245E-02 0.108E-01
   -.401E+02 -.248E+00 0.492E+03   0.404E+02 0.619E+00 -.488E+03   -.827E-01 -.300E+00 -.286E+01   -.178E-01 -.227E-02 0.593E-02
   -.563E+02 -.359E+01 -.222E+02   0.563E+02 0.347E+01 0.223E+02   0.191E-03 0.126E+00 -.958E-01   -.138E-01 -.893E-03 0.289E-01
   0.523E+02 -.288E+01 0.473E+03   -.522E+02 0.223E+01 -.470E+03   -.179E-01 0.219E+00 -.311E+01   -.134E-01 0.297E-02 0.577E-02
   0.555E+02 -.465E+01 -.483E+02   -.552E+02 0.413E+01 0.490E+02   -.256E+00 0.524E+00 -.682E+00   -.166E-01 -.342E-02 0.331E-01
   -.680E+02 -.363E+01 0.247E+03   0.681E+02 0.377E+01 -.247E+03   0.110E+00 0.220E+00 0.641E-01   -.216E-01 -.335E-02 0.241E-01
   0.112E+01 -.575E+02 -.334E+03   0.195E+00 0.564E+02 0.332E+03   -.130E+01 0.117E+01 0.212E+01   -.976E-02 -.489E-03 0.777E-02
   0.409E+02 0.993E+00 0.488E+03   -.402E+02 -.847E+00 -.484E+03   -.836E+00 -.334E+00 -.325E+01   -.151E-01 -.320E-02 0.834E-03
   0.431E+02 0.582E-01 -.131E+02   -.427E+02 0.187E+00 0.136E+02   -.459E+00 -.254E+00 -.531E+00   -.131E-01 0.451E-02 0.336E-01
   -.920E+02 0.119E+01 0.221E+03   0.917E+02 -.127E+01 -.221E+03   0.467E+00 0.143E+00 -.623E-01   -.162E-01 0.281E-02 0.281E-01
   -.620E+02 -.356E+01 -.387E+03   0.611E+02 0.262E+01 0.385E+03   0.883E+00 0.945E+00 0.230E+01   -.119E-01 0.233E-02 0.321E-02
   0.352E+02 0.329E+02 -.319E+03   -.340E+02 -.320E+02 0.318E+03   -.116E+01 -.957E+00 0.129E+01   -.870E-02 0.133E-02 0.142E-01
   0.531E+02 -.544E+01 0.255E+03   -.523E+02 0.535E+01 -.255E+03   -.728E+00 0.315E+00 -.115E+00   -.143E-01 -.280E-02 0.267E-01
   -.141E+03 -.430E+02 0.568E+03   0.140E+03 0.424E+02 -.565E+03   0.860E+00 0.527E-01 -.328E+01   0.544E-02 -.352E-02 0.849E-02
   -.147E+03 -.360E+02 -.337E+02   0.147E+03 0.356E+02 0.343E+02   0.266E+00 0.422E+00 -.681E+00   0.499E-02 0.847E-03 0.255E-01
   -.156E+03 0.437E+01 0.247E+03   0.155E+03 -.446E+01 -.248E+03   0.882E+00 0.348E+00 0.219E+00   -.105E-01 -.224E-02 0.274E-01
   -.131E+03 0.420E+01 -.373E+03   0.131E+03 -.403E+01 0.371E+03   0.488E+00 -.180E+00 0.156E+01   -.367E-02 0.146E-02 0.251E-02
   0.118E+03 0.109E+03 -.613E+03   -.118E+03 -.110E+03 0.619E+03   0.624E-01 0.657E+00 -.547E+01   0.589E-02 0.930E-02 0.254E-01
   -.670E+02 0.113E+02 -.800E+03   0.675E+02 -.140E+02 0.815E+03   -.462E+00 0.263E+01 -.149E+02   -.661E-02 0.114E-02 -.984E-02
   0.186E+03 0.187E+02 -.595E+03   -.187E+03 -.202E+02 0.601E+03   0.951E+00 0.158E+01 -.519E+01   -.109E-02 -.893E-03 0.261E-01
   -.377E+02 0.944E+01 -.716E+03   0.379E+02 -.747E+01 0.725E+03   -.171E+00 -.197E+01 -.910E+01   -.203E-01 0.120E-03 -.867E-02
   0.741E+02 -.457E+02 -.800E+03   -.741E+02 0.500E+02 0.818E+03   -.591E-01 -.424E+01 -.171E+02   0.224E-02 0.793E-02 0.171E-01
   0.728E+02 -.651E+02 -.923E+03   -.692E+02 0.644E+02 0.943E+03   -.369E+01 0.720E+00 -.197E+02   0.225E-01 0.540E-02 0.477E-02
   -.155E+03 -.498E+02 -.987E+03   0.156E+03 0.484E+02 0.101E+04   -.137E+01 0.135E+01 -.196E+02   0.778E-02 0.748E-02 -.533E-02
   0.507E+02 0.567E+02 -.979E+03   -.532E+02 -.564E+02 0.100E+04   0.248E+01 -.304E+00 -.211E+02   0.611E-02 0.151E-01 -.345E-02
   0.357E+02 -.153E+02 -.813E+03   -.366E+02 0.155E+02 0.831E+03   0.952E+00 -.251E+00 -.180E+02   -.287E-02 0.949E-02 -.465E-02
   0.492E+02 -.768E+02 -.957E+03   -.505E+02 0.813E+02 0.976E+03   0.124E+01 -.451E+01 -.186E+02   -.720E-02 0.476E-02 -.113E-01
 -----------------------------------------------------------------------------------------------
   -.522E+00 0.661E+01 0.165E+03   -.107E-12 0.199E-12 -.500E-11   0.176E+00 -.661E+01 -.166E+03   0.344E+00 0.231E-01 0.154E+01
 
 
 POSITION                                       TOTAL-FORCE (eV/Angst)
 -----------------------------------------------------------------------------------
      8.57631      8.29685     10.39845        -0.087077     -0.160746      0.008527
      8.55609      3.81711     15.08843        -0.002821     -0.000276      0.000718
      8.47353      6.00996     17.07045         0.002111     -0.007504      0.001351
      8.51616      0.79995     12.43874        -0.050298     -0.079881      0.011227
     13.46481      6.13944     15.25373         0.001183     -0.001703     -0.002601
     13.49094      1.15316     10.44749        -0.019063     -0.392756     -0.058485
     10.03344      3.28428     12.67411        -0.104475      0.436995     -0.623120
      9.95695      8.34489     17.30331         0.000955     -0.003120     -0.002453
      7.12524      5.81577     10.15765        -0.113432     -0.456568      0.932520
      7.06496      1.30099     15.06345        -0.001842      0.002946     -0.004074
      8.51222      3.28036     10.20450         0.306220      0.046617      0.845033
      8.49112      8.29243     14.93274        -0.000731      0.003833      0.000054
     10.22263      8.06723     12.77991         0.233427      0.405917     -0.282636
     10.18844      3.76335     17.37159        -0.001355     -0.003091      0.005976
      5.42664      8.10481     10.20639         0.288392      0.057014      0.893534
      5.34760      3.53819     15.09986         0.001609     -0.002623     -0.000517
      8.52843      5.75423     12.65640         0.005982     -0.116133     -0.362870
      8.63082      1.21027     17.51166        -0.000251      0.000168      0.004187
      3.84829      7.97317     12.47259        -0.462780      0.479049     -0.504863
      3.84719      3.37529     17.45524         0.000198     -0.004411     -0.002664
      3.79894      5.67188     14.81471         0.003254     -0.003274      0.000010
      3.90063      0.73891     10.00000         0.460595     -0.200199      0.379980
     10.23100      6.09108     14.89415        -0.001340     -0.002947      0.001445
     10.19112      1.10470     10.13736        -0.212502     -0.013861      0.304186
      6.82945      7.99424     12.66670         0.019819      0.344419     -0.439860
      6.92658      3.56072     17.46304         0.001052     -0.001403      0.004209
     11.49506      6.21020     17.35864        -0.002253     -0.000958      0.005848
     11.66772      1.05372     12.57547        -0.233962     -0.177505     -0.508852
     11.73919      3.33868     10.41199        -0.273359     -0.092103      0.588031
     11.74111      8.35710     15.28262         0.000561      0.002617      0.000401
      7.18522      3.24644     12.75390        -0.162175      0.194108     -0.377968
      7.25170      8.34983     17.43816        -0.006229      0.001127      0.002760
      6.77232      5.97953     14.84917        -0.005408     -0.001150     -0.003552
      6.87795      0.97560     10.08695        -0.043278     -0.012077      0.210880
      5.51084      5.55012     12.48419        -0.178088      0.295539     -0.553299
      5.54948      0.96132     17.52538        -0.004633     -0.004001      0.003495
      3.51249      3.50019     12.83519        -0.016938     -0.168394     -0.203892
      3.13784      8.70229     17.53178         0.000775     -0.003554      0.004966
      3.46798      5.87237     10.40868         0.059911     -0.210761     -0.030860
      3.46437      1.32680     15.15681         0.000955     -0.001146     -0.001997
     11.91771      8.21633     10.24534        -0.215458      0.008124      0.698222
     11.92669      3.64521     15.07180         0.000242     -0.001538     -0.001655
      5.24135      3.36543     10.32679         0.118827      0.081058      0.170969
      5.18856      8.38048     15.11119        -0.000712     -0.005010     -0.001561
      5.20050      6.15738     17.30744        -0.001029     -0.004233     -0.000664
      5.28930      0.99064     12.60849         0.254443      0.032149     -0.304559
      1.60538      5.84491     12.85122         0.025033      0.013460     -0.547008
      1.35850      1.64866     17.53891         0.001635     -0.002110      0.002921
     13.72038      5.67134     10.18293         0.148865      0.068384      0.579379
     13.69288      1.07412     14.97463        -0.002323     -0.002381     -0.001011
      1.63456      8.33987     10.36453         0.027206     -0.428651      0.139626
      1.58258      3.76829     15.30923        -0.002898      0.000621     -0.001100
     13.76831      3.16119     12.53308         0.172524      0.350112     -0.311577
      0.05672      8.25482     17.52392        -0.000628     -0.002210      0.008720
      1.99440      3.17314     10.17666        -0.126172     -0.191468      0.643815
      1.88599      8.07401     15.05157        -0.004786     -0.005226     -0.002978
     13.48051      8.37930     12.86886         0.112631      0.059409     -0.417062
     13.21626      4.08159     17.81627         0.001557      0.001429      0.002640
      1.87357      5.92937     17.56081        -0.000865     -0.005042      0.002336
      2.02729      0.87737     12.46815         0.010468      0.219004     -0.435257
     10.07171      5.79402     10.14663         0.156846     -0.566142      0.157481
     10.08234      1.24089     14.94947        -0.000831     -0.002750     -0.002460
     11.97051      5.66181     12.67660        -0.068478      0.254125     -0.628080
     11.83129      1.29191     17.70263         0.000558     -0.003670      0.001188
      5.16923      8.40327     17.43937        -0.000354     -0.002562     -0.000416
     13.48839      2.22255     18.68650        -0.002231     -0.003493      0.000827
      3.50769      1.19332     17.52148        -0.002953      0.000505     -0.000631
     13.41032      6.20729     18.17894        -0.000465     -0.000007      0.001232
      3.67712      5.14129     18.37971        -0.000407     -0.000808      0.001130
      5.48320      2.75201     18.47760        -0.000619     -0.001223      0.003702
     10.23034      0.35333     18.59850         0.000033      0.000649      0.004288
      7.11245      0.38380     18.58164         0.000149     -0.004343     -0.005637
      1.87562      7.81092     18.63966        -0.003259     -0.001618     -0.000321
      8.56707      3.06743     18.43112         0.000745     -0.002749     -0.001277
 -----------------------------------------------------------------------------------
    total drift:                               -0.002273      0.019497     -0.030367


--------------------------------------------------------------------------------------------------------



  FREE ENERGIE OF THE ION-ELECTRON SYSTEM (eV)
  ---------------------------------------------------
  free  energy   TOTEN  =      -607.77676455 eV

  energy  without entropy=     -607.77469115  energy(sigma->0) =     -607.77624620
 
 d Force = 0.3605182E-04[ 0.202E-04, 0.519E-04]  d Energy = 0.1986973E-04 0.162E-04
 d Force = 0.8414331E+00[ 0.841E+00, 0.841E+00]  d Ewald  = 0.8414331E+00 0.873E-09


--------------------------------------------------------------------------------------------------------


    POTLOK:  cpu time    0.0602: real time    0.0603


--------------------------------------------------------------------------------------------------------


 Conjugate gradient step on ions:
 trial-energy change:   -0.000020  1 .order   -0.000036   -0.000052   -0.000020
  (g-gl).g = 0.120E-04      g.g   = 0.182E-04  gl.gl    = 0.249E-04
 g(Force)  = 0.182E-04   g(Stress)= 0.000E+00 ortho     = 0.301E-05
 gamma     =   0.48243
 trial     =   2.63639
 opt step  =   4.32000  (harmonic =   4.32000) maximal distance =0.00055446
 next E    =  -607.776787   (d E  =  -0.00004)


--------------------------------------------------------------------------------------------------------


  
 reached required accuracy - stopping structural energy minimisation
     LOOP+:  cpu time   46.7310: real time   46.8004
    4ORBIT:  cpu time    0.0000: real time    0.0000

 total amount of memory used by VASP on root node    80083. kBytes
========================================================================

   base      :      30000. kBytes
   nonl-proj :      13958. kBytes
   fftplans  :       3278. kBytes
   grid      :       7939. kBytes
   one-center:         31. kBytes
   wavefun   :      24877. kBytes
 
  
  
 General timing and accounting informations for this job:
 ========================================================
  
                  Total CPU time used (sec):      768.740
                            User time (sec):      754.590
                          System time (sec):       14.150
                         Elapsed time (sec):      770.223
  
                   Maximum memory used (kb):      158832.
                   Average memory used (kb):           0.
  
                          Minor page faults:        44483
                          Major page faults:            0
                 Voluntary context switches:         8200
