  64  64   0   0
  0.5693123E+02  0.1377135E-08  0.9564482E-09  0.2766257E-08  0.1000000E-15
  1.000000000000000E-004
  CAR 
 (110) surface                           
      2.94440638    -58.11024143  301     -0.70546935      1.00000000
    -58.110  0.0000E+00  0.0000E+00
    -57.907  0.0000E+00  0.0000E+00
    -57.703  0.0000E+00  0.0000E+00
    -57.500  0.0000E+00  0.0000E+00
    -57.296  0.0000E+00  0.0000E+00
    -57.093  0.0000E+00  0.0000E+00
    -56.889  0.0000E+00  0.0000E+00
    -56.686  0.0000E+00  0.0000E+00
    -56.482  0.0000E+00  0.0000E+00
    -56.279  0.2411E-35  0.4906E-36
    -56.075  0.8633E-21  0.1757E-21
    -55.872  0.6013E-10  0.1224E-10
    -55.668  0.5976E-03  0.1216E-03
    -55.465 -0.2351E+00 -0.4772E-01
    -55.261  0.2242E+02  0.4515E+01
    -55.058  0.4461E+02  0.1359E+02
    -54.854  0.2148E+02  0.1797E+02
    -54.650  0.9900E+01  0.1998E+02
    -54.447  0.9547E-01  0.2000E+02
    -54.243  0.1019E-04  0.2000E+02
    -54.040  0.0000E+00  0.2000E+02
    -53.836  0.0000E+00  0.2000E+02
    -53.633  0.0000E+00  0.2000E+02
    -53.429  0.0000E+00  0.2000E+02
    -53.226  0.0000E+00  0.2000E+02
    -53.022  0.0000E+00  0.2000E+02
    -52.819  0.0000E+00  0.2000E+02
    -52.615  0.0000E+00  0.2000E+02
    -52.412  0.0000E+00  0.2000E+02
    -52.208  0.0000E+00  0.2000E+02
    -52.005  0.0000E+00  0.2000E+02
    -51.801  0.0000E+00  0.2000E+02
    -51.598  0.0000E+00  0.2000E+02
    -51.394  0.0000E+00  0.2000E+02
    -51.191  0.0000E+00  0.2000E+02
    -50.987  0.0000E+00  0.2000E+02
    -50.784  0.0000E+00  0.2000E+02
    -50.580  0.0000E+00  0.2000E+02
    -50.377  0.0000E+00  0.2000E+02
    -50.173  0.0000E+00  0.2000E+02
    -49.970  0.0000E+00  0.2000E+02
    -49.766  0.0000E+00  0.2000E+02
    -49.563  0.0000E+00  0.2000E+02
    -49.359  0.0000E+00  0.2000E+02
    -49.156  0.0000E+00  0.2000E+02
    -48.952  0.0000E+00  0.2000E+02
    -48.749  0.0000E+00  0.2000E+02
    -48.545  0.0000E+00  0.2000E+02
    -48.341  0.0000E+00  0.2000E+02
    -48.138  0.0000E+00  0.2000E+02
    -47.934  0.0000E+00  0.2000E+02
    -47.731  0.0000E+00  0.2000E+02
    -47.527  0.0000E+00  0.2000E+02
    -47.324  0.0000E+00  0.2000E+02
    -47.120  0.0000E+00  0.2000E+02
    -46.917  0.0000E+00  0.2000E+02
    -46.713  0.0000E+00  0.2000E+02
    -46.510  0.0000E+00  0.2000E+02
    -46.306  0.0000E+00  0.2000E+02
    -46.103  0.0000E+00  0.2000E+02
    -45.899  0.0000E+00  0.2000E+02
    -45.696  0.0000E+00  0.2000E+02
    -45.492  0.0000E+00  0.2000E+02
    -45.289  0.0000E+00  0.2000E+02
    -45.085  0.0000E+00  0.2000E+02
    -44.882  0.0000E+00  0.2000E+02
    -44.678  0.0000E+00  0.2000E+02
    -44.475  0.0000E+00  0.2000E+02
    -44.271  0.0000E+00  0.2000E+02
    -44.068  0.0000E+00  0.2000E+02
    -43.864  0.0000E+00  0.2000E+02
    -43.661  0.0000E+00  0.2000E+02
    -43.457  0.0000E+00  0.2000E+02
    -43.254  0.0000E+00  0.2000E+02
    -43.050  0.0000E+00  0.2000E+02
    -42.847  0.0000E+00  0.2000E+02
    -42.643  0.0000E+00  0.2000E+02
    -42.440  0.0000E+00  0.2000E+02
    -42.236  0.0000E+00  0.2000E+02
    -42.033  0.0000E+00  0.2000E+02
    -41.829  0.0000E+00  0.2000E+02
    -41.625  0.0000E+00  0.2000E+02
    -41.422  0.0000E+00  0.2000E+02
    -41.218  0.0000E+00  0.2000E+02
    -41.015  0.0000E+00  0.2000E+02
    -40.811  0.0000E+00  0.2000E+02
    -40.608  0.0000E+00  0.2000E+02
    -40.404  0.0000E+00  0.2000E+02
    -40.201  0.0000E+00  0.2000E+02
    -39.997  0.0000E+00  0.2000E+02
    -39.794  0.0000E+00  0.2000E+02
    -39.590  0.0000E+00  0.2000E+02
    -39.387  0.0000E+00  0.2000E+02
    -39.183  0.0000E+00  0.2000E+02
    -38.980  0.0000E+00  0.2000E+02
    -38.776  0.0000E+00  0.2000E+02
    -38.573  0.0000E+00  0.2000E+02
    -38.369  0.0000E+00  0.2000E+02
    -38.166  0.0000E+00  0.2000E+02
    -37.962  0.0000E+00  0.2000E+02
    -37.759  0.0000E+00  0.2000E+02
    -37.555  0.0000E+00  0.2000E+02
    -37.352  0.0000E+00  0.2000E+02
    -37.148  0.0000E+00  0.2000E+02
    -36.945  0.0000E+00  0.2000E+02
    -36.741  0.0000E+00  0.2000E+02
    -36.538  0.0000E+00  0.2000E+02
    -36.334  0.0000E+00  0.2000E+02
    -36.131  0.0000E+00  0.2000E+02
    -35.927  0.0000E+00  0.2000E+02
    -35.724  0.0000E+00  0.2000E+02
    -35.520  0.0000E+00  0.2000E+02
    -35.317  0.0000E+00  0.2000E+02
    -35.113  0.0000E+00  0.2000E+02
    -34.909  0.0000E+00  0.2000E+02
    -34.706  0.0000E+00  0.2000E+02
    -34.502  0.0000E+00  0.2000E+02
    -34.299  0.0000E+00  0.2000E+02
    -34.095  0.0000E+00  0.2000E+02
    -33.892  0.0000E+00  0.2000E+02
    -33.688  0.0000E+00  0.2000E+02
    -33.485  0.0000E+00  0.2000E+02
    -33.281  0.0000E+00  0.2000E+02
    -33.078  0.0000E+00  0.2000E+02
    -32.874  0.0000E+00  0.2000E+02
    -32.671  0.0000E+00  0.2000E+02
    -32.467  0.4773E-28  0.2000E+02
    -32.264  0.3127E-15  0.2000E+02
    -32.060  0.3536E-06  0.2000E+02
    -31.857  0.2983E-01  0.2001E+02
    -31.653  0.1427E+01  0.2030E+02
    -31.450  0.4002E+02  0.2844E+02
    -31.246  0.8226E+02  0.4518E+02
    -31.043  0.1003E+03  0.6559E+02
    -30.839  0.4428E+02  0.7460E+02
    -30.636  0.2562E+02  0.7981E+02
    -30.432  0.8898E+00  0.7999E+02
    -30.229  0.3122E-01  0.8000E+02
    -30.025  0.2452E-06  0.8000E+02
    -29.822  0.0000E+00  0.8000E+02
    -29.618  0.0000E+00  0.8000E+02
    -29.415  0.0000E+00  0.8000E+02
    -29.211  0.0000E+00  0.8000E+02
    -29.008  0.0000E+00  0.8000E+02
    -28.804  0.0000E+00  0.8000E+02
    -28.600  0.0000E+00  0.8000E+02
    -28.397  0.0000E+00  0.8000E+02
    -28.193  0.0000E+00  0.8000E+02
    -27.990  0.0000E+00  0.8000E+02
    -27.786  0.0000E+00  0.8000E+02
    -27.583  0.0000E+00  0.8000E+02
    -27.379  0.0000E+00  0.8000E+02
    -27.176  0.0000E+00  0.8000E+02
    -26.972  0.0000E+00  0.8000E+02
    -26.769  0.0000E+00  0.8000E+02
    -26.565  0.0000E+00  0.8000E+02
    -26.362  0.0000E+00  0.8000E+02
    -26.158  0.0000E+00  0.8000E+02
    -25.955  0.0000E+00  0.8000E+02
    -25.751  0.0000E+00  0.8000E+02
    -25.548  0.0000E+00  0.8000E+02
    -25.344  0.0000E+00  0.8000E+02
    -25.141  0.0000E+00  0.8000E+02
    -24.937  0.0000E+00  0.8000E+02
    -24.734  0.0000E+00  0.8000E+02
    -24.530  0.0000E+00  0.8000E+02
    -24.327  0.0000E+00  0.8000E+02
    -24.123  0.0000E+00  0.8000E+02
    -23.920  0.0000E+00  0.8000E+02
    -23.716  0.0000E+00  0.8000E+02
    -23.513  0.0000E+00  0.8000E+02
    -23.309  0.0000E+00  0.8000E+02
    -23.106  0.0000E+00  0.8000E+02
    -22.902  0.0000E+00  0.8000E+02
    -22.699  0.0000E+00  0.8000E+02
    -22.495  0.0000E+00  0.8000E+02
    -22.292  0.0000E+00  0.8000E+02
    -22.088  0.0000E+00  0.8000E+02
    -21.884  0.0000E+00  0.8000E+02
    -21.681  0.0000E+00  0.8000E+02
    -21.477  0.0000E+00  0.8000E+02
    -21.274  0.0000E+00  0.8000E+02
    -21.070  0.0000E+00  0.8000E+02
    -20.867  0.0000E+00  0.8000E+02
    -20.663  0.0000E+00  0.8000E+02
    -20.460  0.0000E+00  0.8000E+02
    -20.256  0.0000E+00  0.8000E+02
    -20.053  0.0000E+00  0.8000E+02
    -19.849  0.0000E+00  0.8000E+02
    -19.646  0.0000E+00  0.8000E+02
    -19.442  0.0000E+00  0.8000E+02
    -19.239  0.0000E+00  0.8000E+02
    -19.035  0.0000E+00  0.8000E+02
    -18.832  0.0000E+00  0.8000E+02
    -18.628  0.0000E+00  0.8000E+02
    -18.425  0.0000E+00  0.8000E+02
    -18.221  0.0000E+00  0.8000E+02
    -18.018  0.0000E+00  0.8000E+02
    -17.814  0.0000E+00  0.8000E+02
    -17.611  0.0000E+00  0.8000E+02
    -17.407  0.0000E+00  0.8000E+02
    -17.204  0.0000E+00  0.8000E+02
    -17.000  0.0000E+00  0.8000E+02
    -16.797  0.0000E+00  0.8000E+02
    -16.593  0.0000E+00  0.8000E+02
    -16.390  0.0000E+00  0.8000E+02
    -16.186  0.0000E+00  0.8000E+02
    -15.983  0.0000E+00  0.8000E+02
    -15.779  0.0000E+00  0.8000E+02
    -15.576  0.0000E+00  0.8000E+02
    -15.372  0.0000E+00  0.8000E+02
    -15.168  0.0000E+00  0.8000E+02
    -14.965  0.0000E+00  0.8000E+02
    -14.761  0.0000E+00  0.8000E+02
    -14.558  0.0000E+00  0.8000E+02
    -14.354  0.0000E+00  0.8000E+02
    -14.151  0.0000E+00  0.8000E+02
    -13.947  0.0000E+00  0.8000E+02
    -13.744  0.0000E+00  0.8000E+02
    -13.540  0.0000E+00  0.8000E+02
    -13.337  0.0000E+00  0.8000E+02
    -13.133  0.0000E+00  0.8000E+02
    -12.930  0.0000E+00  0.8000E+02
    -12.726  0.0000E+00  0.8000E+02
    -12.523  0.0000E+00  0.8000E+02
    -12.319  0.0000E+00  0.8000E+02
    -12.116  0.0000E+00  0.8000E+02
    -11.912  0.0000E+00  0.8000E+02
    -11.709  0.0000E+00  0.8000E+02
    -11.505  0.0000E+00  0.8000E+02
    -11.302  0.0000E+00  0.8000E+02
    -11.098  0.0000E+00  0.8000E+02
    -10.895  0.0000E+00  0.8000E+02
    -10.691  0.0000E+00  0.8000E+02
    -10.488  0.0000E+00  0.8000E+02
    -10.284  0.0000E+00  0.8000E+02
    -10.081  0.0000E+00  0.8000E+02
     -9.877  0.0000E+00  0.8000E+02
     -9.674  0.0000E+00  0.8000E+02
     -9.470  0.0000E+00  0.8000E+02
     -9.267  0.0000E+00  0.8000E+02
     -9.063  0.0000E+00  0.8000E+02
     -8.859  0.0000E+00  0.8000E+02
     -8.656  0.0000E+00  0.8000E+02
     -8.452  0.0000E+00  0.8000E+02
     -8.249  0.4676E-26  0.8000E+02
     -8.045  0.6178E-14  0.8000E+02
     -7.842  0.1437E-05  0.8000E+02
     -7.638  0.1561E-01  0.8000E+02
     -7.435  0.1424E+01  0.8029E+02
     -7.231  0.8150E+01  0.8195E+02
     -7.028  0.6506E+00  0.8208E+02
     -6.824  0.9501E+01  0.8402E+02
     -6.621  0.6229E-01  0.8403E+02
     -6.417  0.9751E+01  0.8601E+02
     -6.214 -0.4167E+00  0.8593E+02
     -6.010  0.1544E+02  0.8907E+02
     -5.807  0.3568E+01  0.8980E+02
     -5.603  0.5851E+01  0.9099E+02
     -5.400  0.8990E+01  0.9282E+02
     -5.196  0.6915E+01  0.9423E+02
     -4.993  0.8038E+01  0.9586E+02
     -4.789  0.8542E+01  0.9760E+02
     -4.586  0.1002E+02  0.9964E+02
     -4.382  0.1579E+02  0.1029E+03
     -4.179  0.1152E+02  0.1052E+03
     -3.975  0.2322E+02  0.1099E+03
     -3.772  0.2739E+02  0.1155E+03
     -3.568  0.3164E+02  0.1219E+03
     -3.365  0.4671E+02  0.1314E+03
     -3.161  0.5858E+02  0.1434E+03
     -2.958  0.6272E+02  0.1561E+03
     -2.754  0.6569E+02  0.1695E+03
     -2.551  0.6691E+02  0.1831E+03
     -2.347  0.6885E+02  0.1971E+03
     -2.143  0.6395E+02  0.2101E+03
     -1.940  0.6922E+02  0.2242E+03
     -1.736  0.8393E+02  0.2413E+03
     -1.533  0.9723E+02  0.2611E+03
     -1.329  0.1036E+03  0.2822E+03
     -1.126  0.9914E+02  0.3024E+03
     -0.922  0.9846E+02  0.3224E+03
     -0.719  0.9982E+02  0.3427E+03
     -0.515  0.9842E+02  0.3627E+03
     -0.312  0.1014E+03  0.3834E+03
     -0.108  0.9049E+02  0.4018E+03
      0.095  0.5728E+02  0.4134E+03
      0.299  0.1260E+02  0.4160E+03
      0.502 -0.2415E-01  0.4160E+03
      0.706  0.1766E-03  0.4160E+03
      0.909  0.1237E-10  0.4160E+03
      1.113  0.0000E+00  0.4160E+03
      1.316  0.0000E+00  0.4160E+03
      1.520  0.0000E+00  0.4160E+03
      1.723  0.0000E+00  0.4160E+03
      1.927  0.0000E+00  0.4160E+03
      2.130  0.0000E+00  0.4160E+03
      2.334  0.0000E+00  0.4160E+03
      2.537  0.0000E+00  0.4160E+03
      2.741  0.0000E+00  0.4160E+03
      2.944  0.0000E+00  0.4160E+03
