 vasp.5.4.1 05Feb16 (build Mar 19 2020 08:54:17) complex                        
  
 executed on           IFC91_ompi date 2021.11.11  21:24:44
 running on   96 total cores
 distrk:  each k-point on   96 cores,    1 groups
 distr:  one band on NCORES_PER_BAND=  24 cores,    4 groups


--------------------------------------------------------------------------------------------------------


 INCAR:
 POTCAR:    PAW_PBE Al 04Jan2001                  
 POTCAR:    PAW_PBE Nb_sv 25May2007               
 POTCAR:    PAW_PBE Ta 17Jan2003                  
 POTCAR:    PAW_PBE Ti 08Apr2002                  
 POTCAR:   PAW_PBE Zr 08Apr2002                   

 ----------------------------------------------------------------------------- 
|                                                                             |
|           W    W    AA    RRRRR   N    N  II  N    N   GGGG   !!!           |
|           W    W   A  A   R    R  NN   N  II  NN   N  G    G  !!!           |
|           W    W  A    A  R    R  N N  N  II  N N  N  G       !!!           |
|           W WW W  AAAAAA  RRRRR   N  N N  II  N  N N  G  GGG   !            |
|           WW  WW  A    A  R   R   N   NN  II  N   NN  G    G                |
|           W    W  A    A  R    R  N    N  II  N    N   GGGG   !!!           |
|                                                                             |
|      For optimal performance we recommend to set                            |
|        NCORE= 4 - approx SQRT( number of cores)                             |
|      NCORE specifies how many cores store one orbital (NPAR=cpu/NCORE).     |
|      This setting can  greatly improve the performance of VASP for DFT.     |
|      The default, NPAR=number of cores might be grossly inefficient         |
|      on modern multi-core architectures or massively parallel machines.     |
|      Do your own testing !!!!                                               |
|      Unfortunately you need to use the default for GW and RPA calculations. |
|      (for HF NCORE is supported but not extensively tested yet)             |
|                                                                             |
 ----------------------------------------------------------------------------- 

 POTCAR:    PAW_PBE Al 04Jan2001                  
   VRHFIN =Al: s2p1                                                             
   LEXCH  = PE                                                                  
   EATOM  =    53.5387 eV,    3.9350 Ry                                         
                                                                                
   TITEL  = PAW_PBE Al 04Jan2001                                                
   LULTRA =        F    use ultrasoft PP ?                                      
   IUNSCR =        1    unscreen: 0-lin 1-nonlin 2-no                           
   RPACOR =    1.500    partial core radius                                     
   POMASS =   26.981; ZVAL   =    3.000    mass and valenz                      
   RCORE  =    1.900    outmost cutoff radius                                   
   RWIGS  =    2.650; RWIGS  =    1.402    wigner-seitz radius (au A)           
   ENMAX  =  240.300; ENMIN  =  180.225 eV                                      
   ICORE  =        2    local potential                                         
   LCOR   =        T    correct aug charges                                     
   LPAW   =        T    paw PP                                                  
   EAUG   =  291.052                                                            
   DEXC   =    0.000                                                            
   RMAX   =    1.939    core radius for proj-oper                               
   RAUG   =    1.300    factor for augmentation sphere                          
   RDEP   =    1.966    radius for radial grids                                 
   RDEPT  =    1.856    core radius for aug-charge                              
                                                                                
   Atomic configuration                                                         
    6 entries                                                                   
     n  l   j            E        occ.                                          
     1  0  0.50     -1511.1048   2.0000                                         
     2  0  0.50      -108.1629   2.0000                                         
     2  1  1.50       -69.6402   6.0000                                         
     3  0  0.50        -7.7528   2.0000                                         
     3  1  1.50        -2.7121   1.0000                                         
     3  2  2.50        -2.7212   0.0000                                         
   Description                                                                  
     l       E           TYP  RCUT    TYP  RCUT                                 
     0     -7.7528455     23  1.900                                             
     0     -3.3096929     23  1.900                                             
     1     -2.7120682     23  1.900                                             
     1     13.6058260     23  1.900                                             
     2     -2.7211652      7  1.900                                             
  local pseudopotential read in
  partial core-charges read in
  partial kinetic energy density read in
  atomic valenz-charges read in
  non local Contribution for L=           0  read in
    real space projection operators read in
  non local Contribution for L=           0  read in
    real space projection operators read in
  non local Contribution for L=           1  read in
    real space projection operators read in
  non local Contribution for L=           1  read in
    real space projection operators read in
    PAW grid and wavefunctions read in
 
   number of l-projection  operators is LMAX  =           4
   number of lm-projection operators is LMMAX =           8
 
 POTCAR:    PAW_PBE Nb_sv 25May2007               
   VRHFIN =Nb: 4p5s4d                                                           
   LEXCH  = PE                                                                  
   EATOM  =  1555.1913 eV,  114.3033 Ry                                         
                                                                                
   TITEL  = PAW_PBE Nb_sv 25May2007                                             
   LULTRA =        F    use ultrasoft PP ?                                      
   IUNSCR =        1    unscreen: 0-lin 1-nonlin 2-no                           
   RPACOR =    1.800    partial core radius                                     
   POMASS =   92.910; ZVAL   =   13.000    mass and valenz                      
   RCORE  =    2.400    outmost cutoff radius                                   
   RWIGS  =    2.400; RWIGS  =    1.270    wigner-seitz radius (au A)           
   ENMAX  =  293.235; ENMIN  =  219.927 eV                                      
   ICORE  =        3    local potential                                         
   LCOR   =        T    correct aug charges                                     
   LPAW   =        T    paw PP                                                  
   EAUG   =  455.659                                                            
   DEXC   =    0.000                                                            
   RMAX   =    2.456    core radius for proj-oper                               
   RAUG   =    1.300    factor for augmentation sphere                          
   RDEP   =    2.451    radius for radial grids                                 
   RDEPT  =    1.956    core radius for aug-charge                              
                                                                                
   Atomic configuration                                                         
   11 entries                                                                   
     n  l   j            E        occ.                                          
     1  0  0.50    -18805.2457   2.0000                                         
     2  0  0.50     -2630.2869   2.0000                                         
     2  1  1.50     -2348.4046   6.0000                                         
     3  0  0.50      -438.8757   2.0000                                         
     3  1  1.50      -346.7588   6.0000                                         
     3  2  2.50      -196.2560  10.0000                                         
     4  0  0.50       -58.3859   2.0000                                         
     5  0  0.50        -3.9816   1.0000                                         
     4  1  1.50       -34.5141   6.0000                                         
     4  2  2.50        -3.0408   4.0000                                         
     4  3  2.50        -1.3606   0.0000                                         
   Description                                                                  
     l       E           TYP  RCUT    TYP  RCUT                                 
     0    -58.3859094     23  2.200                                             
     0     -3.9816262     23  2.200                                             
     1    -34.5140738     23  2.200                                             
     1     13.6058260     23  2.200                                             
     2     -3.0408010     23  2.200                                             
     2     -0.1283038     23  2.200                                             
     3     -1.3605826     23  2.400                                             
  local pseudopotential read in
  partial core-charges read in
  partial kinetic energy density read in
  atomic valenz-charges read in
  non local Contribution for L=           0  read in
    real space projection operators read in
  non local Contribution for L=           0  read in
    real space projection operators read in
  non local Contribution for L=           1  read in
    real space projection operators read in
  non local Contribution for L=           1  read in
    real space projection operators read in
  non local Contribution for L=           2  read in
    real space projection operators read in
  non local Contribution for L=           2  read in
    real space projection operators read in
    PAW grid and wavefunctions read in
 
   number of l-projection  operators is LMAX  =           6
   number of lm-projection operators is LMMAX =          18
 
 POTCAR:    PAW_PBE Ta 17Jan2003                  
   VRHFIN =Ta:  6s5d                                                            
   LEXCH  = PE                                                                  
   EATOM  =   130.6506 eV,    9.6025 Ry                                         
                                                                                
   TITEL  = PAW_PBE Ta 17Jan2003                                                
   LULTRA =        F    use ultrasoft PP ?                                      
   IUNSCR =        1    unscreen: 0-lin 1-nonlin 2-no                           
   RPACOR =    2.330    partial core radius                                     
   POMASS =  180.948; ZVAL   =    5.000    mass and valenz                      
   RCORE  =    2.900    outmost cutoff radius                                   
   RWIGS  =    2.840; RWIGS  =    1.503    wigner-seitz radius (au A)           
   ENMAX  =  223.667; ENMIN  =  167.750 eV                                      
   RCLOC  =    2.205    cutoff for local pot                                    
   LCOR   =        T    correct aug charges                                     
   LPAW   =        T    paw PP                                                  
   EAUG   =  332.075                                                            
   DEXC   =    0.000                                                            
   RMAX   =    2.970    core radius for proj-oper                               
   RAUG   =    1.300    factor for augmentation sphere                          
   RDEP   =    3.060    radius for radial grids                                 
   RDEPT  =    2.354    core radius for aug-charge                              
                                                                                
   Atomic configuration                                                         
   16 entries                                                                   
     n  l   j            E        occ.                                          
     1  0  0.50    -67341.2807   2.0000                                         
     2  0  0.50    -11566.9376   2.0000                                         
     2  1  1.50    -10134.1182   6.0000                                         
     3  0  0.50     -2648.5620   2.0000                                         
     3  1  1.50     -2222.6012   6.0000                                         
     3  2  2.50     -1726.3120  10.0000                                         
     4  0  0.50      -538.6961   2.0000                                         
     4  1  1.50      -399.0129   6.0000                                         
     4  2  2.50      -220.3959  10.0000                                         
     4  3  3.50       -23.0374  14.0000                                         
     5  0  0.50       -71.2901   2.0000                                         
     5  1  1.50       -37.8225   6.0000                                         
     5  2  2.50        -2.6455   4.0000                                         
     6  0  0.50        -4.9623   1.0000                                         
     6  1  1.50        -1.3606   0.0000                                         
     5  3  2.50        -1.3606   0.0000                                         
   Description                                                                  
     l       E           TYP  RCUT    TYP  RCUT                                 
     2     -2.6455043     23  2.500                                             
     2     -0.6258895     23  2.500                                             
     0     -4.9622780     23  2.500                                             
     0      4.7531321     23  2.500                                             
     1     -1.3605826     23  2.900                                             
     1     27.2116520     23  2.900                                             
  local pseudopotential read in
  partial core-charges read in
  partial kinetic energy density read in
  atomic valenz-charges read in
  non local Contribution for L=           2  read in
    real space projection operators read in
  non local Contribution for L=           2  read in
    real space projection operators read in
  non local Contribution for L=           0  read in
    real space projection operators read in
  non local Contribution for L=           0  read in
    real space projection operators read in
  non local Contribution for L=           1  read in
    real space projection operators read in
  non local Contribution for L=           1  read in
    real space projection operators read in
    PAW grid and wavefunctions read in
 
   number of l-projection  operators is LMAX  =           6
   number of lm-projection operators is LMMAX =          18
 
 POTCAR:    PAW_PBE Ti 08Apr2002                  
   VRHFIN =Ti: d3 s1                                                            
   LEXCH  = PE                                                                  
   EATOM  =    94.7928 eV,    6.9671 Ry                                         
                                                                                
   TITEL  = PAW_PBE Ti 08Apr2002                                                
   LULTRA =        F    use ultrasoft PP ?                                      
   IUNSCR =        1    unscreen: 0-lin 1-nonlin 2-no                           
   RPACOR =    2.200    partial core radius                                     
   POMASS =   47.880; ZVAL   =    4.000    mass and valenz                      
   RCORE  =    2.800    outmost cutoff radius                                   
   RWIGS  =    2.500; RWIGS  =    1.323    wigner-seitz radius (au A)           
   ENMAX  =  178.330; ENMIN  =  133.747 eV                                      
   RCLOC  =    2.215    cutoff for local pot                                    
   LCOR   =        T    correct aug charges                                     
   LPAW   =        T    paw PP                                                  
   EAUG   =  328.883                                                            
   DEXC   =    0.000                                                            
   RMAX   =    2.868    core radius for proj-oper                               
   RAUG   =    1.300    factor for augmentation sphere                          
   RDEP   =    2.885    radius for radial grids                                 
   RDEPT  =    2.320    core radius for aug-charge                              
                                                                                
   Atomic configuration                                                         
    9 entries                                                                   
     n  l   j            E        occ.                                          
     1  0  0.50     -4865.3608   2.0000                                         
     2  0  0.50      -533.1367   2.0000                                         
     2  1  1.50      -440.5031   6.0000                                         
     3  0  0.50       -59.3186   2.0000                                         
     3  1  1.50       -35.7012   6.0000                                         
     3  2  2.50        -1.9157   3.0000                                         
     4  0  0.50        -3.7291   1.0000                                         
     4  1  1.50        -4.0817   0.0000                                         
     4  3  2.50        -1.3606   0.0000                                         
   Description                                                                  
     l       E           TYP  RCUT    TYP  RCUT                                 
     2     -1.9156924     23  2.800                                             
     2     -0.4062961     23  2.800                                             
     0     -3.7290832     23  2.800                                             
     0     20.4087390     23  2.800                                             
     1     -5.4423304     23  2.800                                             
  local pseudopotential read in
  partial core-charges read in
  partial kinetic energy density read in
  atomic valenz-charges read in
  non local Contribution for L=           2  read in
    real space projection operators read in
  non local Contribution for L=           2  read in
    real space projection operators read in
  non local Contribution for L=           0  read in
    real space projection operators read in
  non local Contribution for L=           0  read in
    real space projection operators read in
  non local Contribution for L=           1  read in
    real space projection operators read in
    PAW grid and wavefunctions read in
 
   number of l-projection  operators is LMAX  =           5
   number of lm-projection operators is LMMAX =          15
 
 POTCAR:   PAW_PBE Zr 08Apr2002                   
   VRHFIN =Zr: 5s4d5p                                                           
   LEXCH  = PE                                                                  
   EATOM  =    77.8472 eV,    5.7216 Ry                                         
                                                                                
   TITEL  = PAW_PBE Zr 08Apr2002                                                
   LULTRA =        F    use ultrasoft PP ?                                      
   IUNSCR =        1    unscreen: 0-lin 1-nonlin 2-no                           
   RPACOR =    2.200    partial core radius                                     
   POMASS =   91.224; ZVAL   =    4.000    mass and valenz                      
   RCORE  =    3.000    outmost cutoff radius                                   
   RWIGS  =    3.070; RWIGS  =    1.625    wigner-seitz radius (au A)           
   ENMAX  =  154.632; ENMIN  =  115.974 eV                                      
   RCLOC  =    2.213    cutoff for local pot                                    
   LCOR   =        T    correct aug charges                                     
   LPAW   =        T    paw PP                                                  
   EAUG   =  243.217                                                            
   DEXC   =    -.082                                                            
   RMAX   =    3.708    core radius for proj-oper                               
   RAUG   =    1.300    factor for augmentation sphere                          
   RDEP   =    3.146    radius for radial grids                                 
   QCUT   =   -3.371; QGAM   =    6.742    optimization parameters              
                                                                                
   Description                                                                  
     l     E      TYP  RCUT    TYP  RCUT                                        
     2   .000     23  3.000                                                     
     2   .000     23  3.000                                                     
     0   .000     23  3.000                                                     
     0  2.000     23  3.000                                                     
     1  -.400     23  3.000                                                     
     3   .000      7   .000                                                     
  local pseudopotential read in
  partial core-charges read in
  atomic valenz-charges read in
  non local Contribution for L=           2  read in
    real space projection operators read in
  non local Contribution for L=           2  read in
    real space projection operators read in
  non local Contribution for L=           0  read in
    real space projection operators read in
  non local Contribution for L=           0  read in
    real space projection operators read in
  non local Contribution for L=           1  read in
    real space projection operators read in
    PAW grid and wavefunctions read in
 
   number of l-projection  operators is LMAX  =           5
   number of lm-projection operators is LMMAX =          15
 
 Optimization of the real space projectors (new method)

 maximal supplied QI-value         = 19.84
 optimisation between [QCUT,QGAM] = [ 12.50, 25.00] = [ 43.76,175.03] Ry 
 Optimized for a Real-space Cutoff    1.06 Angstroem

   l    n(q)    QCUT    max X(q) W(low)/X(q) W(high)/X(q)  e(spline) 
   0      8    12.501   176.870    0.16E-03    0.12E-03    0.66E-07
   0      8    12.501   105.762    0.15E-03    0.12E-03    0.64E-07
   1      7    12.501    55.370    0.36E-03    0.38E-03    0.67E-07
   1      7    12.501    20.208    0.32E-03    0.35E-03    0.64E-07
 Optimization of the real space projectors (new method)

 maximal supplied QI-value         = 15.68
 optimisation between [QCUT,QGAM] = [ 12.55, 25.10] = [ 44.09,176.36] Ry 
 Optimized for a Real-space Cutoff    1.56 Angstroem

   l    n(q)    QCUT    max X(q) W(low)/X(q) W(high)/X(q)  e(spline) 
   0     12    12.548    10.201    0.21E-04    0.36E-05    0.83E-07
   0     12    12.548     8.174    0.31E-04    0.62E-05    0.15E-06
   1     11    12.548     3.488    0.79E-05    0.23E-04    0.21E-06
   1     11    12.548     4.917    0.56E-04    0.13E-03    0.11E-05
   2     11    12.548   153.744    0.25E-03    0.10E-03    0.15E-05
   2     11    12.548   126.342    0.25E-03    0.10E-03    0.15E-05
 Optimization of the real space projectors (new method)

 maximal supplied QI-value         = 12.85
 optimisation between [QCUT,QGAM] = [ 12.46, 25.06] = [ 43.51,175.83] Ry 
 Optimized for a Real-space Cutoff    1.56 Angstroem

   l    n(q)    QCUT    max X(q) W(low)/X(q) W(high)/X(q)  e(spline) 
   2     11    12.465    62.315    0.36E-03    0.20E-03    0.15E-05
   2     11    12.465    52.185    0.36E-03    0.20E-03    0.15E-05
   0     12    12.465   103.837    0.22E-04    0.37E-05    0.56E-06
   0     12    12.465    59.728    0.20E-04    0.34E-05    0.51E-06
   1     11    12.465    13.958    0.44E-03    0.81E-03    0.81E-05
   1     11    12.465     8.441    0.31E-03    0.56E-03    0.56E-05
 Optimization of the real space projectors (new method)

 maximal supplied QI-value         = 13.42
 optimisation between [QCUT,QGAM] = [ 12.48, 25.09] = [ 43.60,176.28] Ry 
 Optimized for a Real-space Cutoff    1.56 Angstroem

   l    n(q)    QCUT    max X(q) W(low)/X(q) W(high)/X(q)  e(spline) 
   2     11    12.478    49.363    0.45E-03    0.34E-03    0.89E-06
   2     11    12.478    47.669    0.44E-03    0.33E-03    0.87E-06
   0     12    12.478    26.374    0.17E-03    0.37E-04    0.21E-05
   0     12    12.478    11.549    0.13E-03    0.31E-04    0.17E-05
   1     11    12.478     9.492    0.91E-05    0.64E-04    0.34E-06
 Optimization of the real space projectors (new method)

 maximal supplied QI-value         = 12.47
 optimisation between [QCUT,QGAM] = [ 12.47, 25.07] = [ 43.56,175.99] Ry 
 Optimized for a Real-space Cutoff    1.70 Angstroem

   l    n(q)    QCUT    max X(q) W(low)/X(q) W(high)/X(q)  e(spline) 
   2     12    12.472     5.149    0.23E-04    0.12E-05    0.19E-06
   2     12    12.472    48.417    0.26E-03    0.15E-03    0.35E-05
   0     13    12.472    27.113    0.15E-04    0.46E-05    0.14E-06
   0     13    12.472    33.957    0.20E-04    0.33E-04    0.12E-05
   1     12    12.472    13.771    0.11E-04    0.23E-05    0.34E-06
 WARNING: PSMAXN for non-local potential too small
          PSMAXN should be >   12.5490833729506       NTYP=           5
  PAW_PBE Al 04Jan2001                  :
 energy of atom  1       EATOM=  -53.5387
 kinetic energy error for atom=    0.0002 (will be added to EATOM!!)
  PAW_PBE Nb_sv 25May2007               :
 energy of atom  2       EATOM=-1555.1913
 kinetic energy error for atom=    0.0037 (will be added to EATOM!!)
  PAW_PBE Ta 17Jan2003                  :
 energy of atom  3       EATOM= -130.6506
 kinetic energy error for atom=    0.0004 (will be added to EATOM!!)
  PAW_PBE Ti 08Apr2002                  :
 energy of atom  4       EATOM=  -94.7928
 kinetic energy error for atom=    0.0001 (will be added to EATOM!!)
 PAW_PBE Zr 08Apr2002                   :
 energy of atom  5       EATOM=  -77.8472
 kinetic energy error for atom=    0.0001 (will be added to EATOM!!)
 
 
 POSCAR: Al Nb Ta Ti Zr                          
  positions in direct lattice
  velocities in cartesian coordinates
 exchange correlation table for  LEXCH =        8
   RHO(1)=    0.500       N(1)  =     2000
   RHO(2)=  100.500       N(2)  =     4000
 


--------------------------------------------------------------------------------------------------------


 ion  position               nearest neighbor table
   1  0.623  0.867  0.376-  34 2.83  25 2.88  24 2.88   9 2.88  13 2.90   4 2.91  61 2.93  15 3.16
                            41 3.35  17 3.40
   2  0.622  0.393  0.546-  31 2.78  23 2.79  26 2.79  33 2.80  14 2.81   7 2.89  10 2.92  62 2.98
                            18 3.15  17 3.17   3 3.18  16 3.19  42 3.35
   3  0.617  0.633  0.626-  14 2.81  26 2.85  23 2.88  32 2.88  33 2.90   8 2.90  27 3.02   2 3.18
                            45 3.19
   4  0.618  0.084  0.450-  31 2.80  24 2.86  34 2.87  13 2.88   1 2.91  25 2.92   7 2.92  10 2.93
                            62 2.97  12 3.16  28 3.16  46 3.24
   5  0.977  0.638  0.554-  27 2.74  30 2.80  42 2.92  56 2.95  59 3.01  52 3.02  54 3.06  63 3.07
                            58 3.13  47 3.14  57 3.35
   6  0.980  0.121  0.378-  29 2.80  28 2.80  53 2.91  41 2.96  51 3.05  55 3.05  60 3.08  57 3.37

   7  0.729  0.343  0.458-  28 2.77  29 2.83  31 2.85   2 2.89  17 2.89  11 2.90   4 2.92  62 3.03
                            63 3.07  42 3.07
   8  0.720  0.897  0.622-  30 2.66  12 2.71  32 2.75  18 2.76  27 2.89   3 2.90  64 3.03  62 3.19

   9  0.517  0.608  0.367-  35 2.84  15 2.85  17 2.87   1 2.88  11 2.89  61 2.95  43 3.10
  10  0.513  0.132  0.540-  18 2.70  36 2.78  16 2.84  12 2.86   2 2.92   4 2.93  46 2.94  31 2.95
                            62 3.05  44 3.14
  11  0.618  0.343  0.369-  24 2.75  34 2.83  31 2.87   9 2.89   7 2.90  61 2.96  43 3.27
  12  0.618  0.874  0.538-   8 2.71  13 2.73  32 2.74  25 2.81  23 2.82  10 2.86  33 2.89  62 2.91
                             4 3.16  44 3.35
  13  0.742  0.843  0.462-  12 2.73  17 2.87   4 2.88   1 2.90  30 2.93  28 2.94  23 2.95  63 2.98
                            41 3.05  57 3.27  62 3.45
  14  0.738  0.396  0.630-  27 2.75   3 2.81   2 2.81  18 2.90  42 2.95  64 2.96  58 3.17
  15  0.394  0.847  0.369-  22 2.68  19 2.76  25 2.83  34 2.84   9 2.85  39 2.98   1 3.16  46 3.43

  16  0.391  0.371  0.541-  21 2.65  20 2.66  26 2.83  10 2.84  37 2.84  33 2.85  31 2.87  40 3.06
                             2 3.19
  17  0.619  0.602  0.458-  33 2.81  25 2.81  23 2.81  31 2.85   9 2.87  13 2.87   7 2.89  61 2.95
                            35 3.03   2 3.17   1 3.40  63 3.44
  18  0.619  0.146  0.622-  10 2.70  32 2.73   8 2.76  26 2.81  62 2.81  14 2.90  36 3.11   2 3.15
                            64 3.31
  19  0.279  0.834  0.451-  15 2.76  35 2.94  46 2.96  39 2.97  25 2.99  44 3.02  60 3.07  51 3.08
                            47 3.12  56 3.20  21 3.34
  20  0.281  0.388  0.620-  16 2.66  45 2.84  36 2.85  21 2.98  59 2.98  52 2.99  48 3.04  26 3.04
                            40 3.18
  21  0.278  0.595  0.539-  16 2.65  45 2.90  59 2.94  35 2.96  52 2.97  44 2.97  20 2.98  47 3.03
                            37 3.03  33 3.06  56 3.11  19 3.34
  22  0.283  0.077  0.361-  15 2.68  46 2.97  43 2.97  34 2.99  51 3.02  55 3.10  60 3.10
  23  0.736  0.634  0.540-  27 2.69  30 2.77   2 2.79  17 2.81  12 2.82   3 2.88  63 2.95  13 2.95
                            42 3.02
  24  0.740  0.115  0.366-  29 2.73  11 2.75  28 2.85   4 2.86   1 2.88  41 3.00
  25  0.496  0.836  0.458-  35 2.78  12 2.81  17 2.81  15 2.83   1 2.88   4 2.92  19 2.99  46 2.99
                            44 3.02  33 3.02
  26  0.501  0.386  0.627-   2 2.79  36 2.80  18 2.81  16 2.83   3 2.85  45 2.94  20 3.04
  27  0.836  0.645  0.624-  23 2.69   5 2.74  14 2.75  58 2.78   8 2.89  30 2.91   3 3.02  54 3.18
                            42 3.38
  28  0.847  0.110  0.455-   7 2.77  62 2.80   6 2.80  24 2.85  57 2.90  13 2.94  53 2.98  29 3.15
                             4 3.16  50 3.27  41 3.36
  29  0.852  0.349  0.376-  24 2.73   6 2.80   7 2.83  53 2.94  61 2.98  49 3.07  28 3.15  63 3.25

  30  0.852  0.868  0.552-   8 2.66  23 2.77   5 2.80  54 2.88  27 2.91  13 2.93  57 2.98  62 2.99
                            50 3.06  64 3.42
  31  0.522  0.339  0.461-   2 2.78   4 2.80  17 2.85   7 2.85  35 2.86  16 2.87  11 2.87  46 2.95
                            10 2.95  43 3.11
  32  0.520  0.899  0.624-  18 2.73  12 2.74   8 2.75  36 2.88   3 2.88  44 2.89  45 3.07
  33  0.499  0.625  0.539-   2 2.80  17 2.81  35 2.82  16 2.85  12 2.89   3 2.90  45 2.91  44 2.92
                            25 3.02  21 3.06
  34  0.499  0.102  0.365-  11 2.83   1 2.83  15 2.84   4 2.87  43 2.91  46 2.98  22 2.99
  35  0.400  0.580  0.451-  25 2.78  33 2.82   9 2.84  31 2.86  37 2.88  39 2.93  19 2.94  21 2.96
                            17 3.03  43 3.08
  36  0.393  0.139  0.621-  10 2.78  26 2.80  20 2.85  40 2.85  32 2.88  38 3.03  18 3.11  44 3.26

  37  0.255  0.366  0.464-  16 2.84  35 2.88  47 3.02  21 3.03  60 3.04  43 3.05  52 3.06  55 3.08
                            46 3.08  40 3.25  39 3.39
  38  0.237  0.915  0.625-  56 2.82  44 2.89  59 2.96  40 2.96  36 3.03  48 3.09  54 3.28  45 3.31

  39  0.252  0.614  0.376-  35 2.93  19 2.97  15 2.98  47 3.07  43 3.07  51 3.07  55 3.08  37 3.39
                            49 3.53
  40  0.245  0.132  0.549-  36 2.85  38 2.96  48 3.02  16 3.06  60 3.06  52 3.06  44 3.08  56 3.16
                            20 3.18  46 3.23  37 3.25  50 3.45
  41  0.865  0.859  0.370-   6 2.96  24 3.00  61 3.05  13 3.05  57 3.06  49 3.12   1 3.35  28 3.36
                            51 3.49  63 3.53
  42  0.865  0.380  0.545-   5 2.92  14 2.95  62 3.01  23 3.02  58 3.02   7 3.07  50 3.12  63 3.14
                            53 3.18  64 3.34   2 3.35  27 3.38  52 3.45
  43  0.381  0.352  0.373-  34 2.91  22 2.97  37 3.05  39 3.07  35 3.08   9 3.10  31 3.11  55 3.26
                            11 3.27  46 3.29
  44  0.375  0.871  0.548-  38 2.89  32 2.89  33 2.92  21 2.97  25 3.02  19 3.02  40 3.08  45 3.09
                            10 3.14  36 3.26  56 3.35  12 3.35  46 3.39
  45  0.385  0.644  0.628-  20 2.84  21 2.90  33 2.91  26 2.94  32 3.07  44 3.09   3 3.19  59 3.28
                            38 3.31
  46  0.384  0.104  0.456-  10 2.94  31 2.95  19 2.96  22 2.97  34 2.98  25 2.99  37 3.08  40 3.23
                             4 3.24  60 3.27  43 3.29  44 3.39  15 3.43
  47  0.117  0.611  0.465-  37 3.02  21 3.03  39 3.07  56 3.08  19 3.12   5 3.14  52 3.14  53 3.14
                            49 3.15  57 3.17  63 3.42  51 3.52  55 3.80
  48  0.114  0.184  0.635-  50 3.01  40 3.02  20 3.04  52 3.09  38 3.09  58 3.10  54 3.32  64 3.55

  49  0.996  0.593  0.368-  63 3.05  29 3.07  41 3.12  47 3.15  51 3.16  55 3.23  53 3.44  39 3.53
                            61 3.65  57 3.82
  50  0.994  0.112  0.547-  48 3.01  64 3.03  30 3.06  54 3.11  42 3.12  52 3.16  56 3.20  57 3.21
                            28 3.27  53 3.34  60 3.40  40 3.45  62 3.59
  51  0.119  0.872  0.375-  60 3.00  22 3.02   6 3.05  39 3.07  19 3.08  57 3.16  49 3.16  41 3.49
                            47 3.52
  52  0.116  0.393  0.550-  21 2.97  20 2.99   5 3.02  37 3.06  40 3.06  48 3.09  59 3.09  47 3.14
                            50 3.16  53 3.17  58 3.28  42 3.45
  53  1.000  0.331  0.453-   6 2.91  29 2.94  28 2.98  60 3.06  63 3.08  55 3.09  47 3.14  52 3.17
                            42 3.18  50 3.34  49 3.44
  54  0.000  0.879  0.626-  30 2.88  56 3.00   5 3.06  59 3.10  50 3.11  64 3.18  27 3.18  38 3.28
                            48 3.32
  55  0.145  0.332  0.368-   6 3.05  37 3.08  39 3.08  53 3.09  22 3.10  49 3.23  60 3.24  43 3.26
                            47 3.80
  56  0.133  0.845  0.541-  38 2.82   5 2.95  57 2.99  54 3.00  59 3.03  47 3.08  21 3.11  40 3.16
                            50 3.20  19 3.20  44 3.35  60 3.43
  57  0.979  0.876  0.465-  28 2.90  30 2.98  56 2.99  41 3.06  63 3.11  60 3.13  51 3.16  47 3.17
                            50 3.21  13 3.27   5 3.35   6 3.37  49 3.82
  58  0.966  0.428  0.641-  27 2.78  42 3.02  48 3.10   5 3.13  64 3.13  14 3.17  59 3.23  52 3.28

  59  0.147  0.634  0.622-  21 2.94  38 2.96  20 2.98   5 3.01  56 3.03  52 3.09  54 3.10  58 3.23
                            45 3.28
  60  0.147  0.092  0.451-  51 3.00  37 3.04  40 3.06  53 3.06  19 3.07   6 3.08  22 3.10  57 3.13
                            55 3.24  46 3.27  50 3.40  56 3.43
  61  0.731  0.606  0.367-   1 2.93  17 2.95   9 2.95  11 2.96  29 2.98  41 3.05  63 3.17  49 3.65

  62  0.735  0.128  0.539-  28 2.80  18 2.81  12 2.91   4 2.97   2 2.98  30 2.99  42 3.01   7 3.03
                            10 3.05  64 3.11   8 3.19  13 3.45  50 3.59
  63  0.869  0.592  0.458-  23 2.95  13 2.98  49 3.05   5 3.07   7 3.07  53 3.08  57 3.11  42 3.14
                            61 3.17  29 3.25  47 3.42  17 3.44  41 3.53
  64  0.858  0.141  0.633-  14 2.96   8 3.03  50 3.03  62 3.11  58 3.13  54 3.18  18 3.31  42 3.34
                            30 3.42  48 3.55
 
  LATTYP: Found a simple orthorhombic cell.
 ALAT       =     9.5644817352
 B/A-ratio  =     1.4398428730
 C/A-ratio  =     2.8922184390
  
  Lattice vectors:
  
 A1 = (   0.0000000000,  -9.5644817352,   0.0000000000)
 A2 = ( -13.7713508606,   0.0000000000,   0.0000000000)
 A3 = (   0.0000000000,   0.0000000000, -27.6625704340)


Analysis of symmetry for initial positions (statically):
=====================================================================
 Subroutine PRICEL returns:
 Original cell was already a primitive cell.
 

 Routine SETGRP: Setting up the symmetry group for a 
 simple orthorhombic supercell.


 Subroutine GETGRP returns: Found  1 space group operations
 (whereof  1 operations were pure point group operations)
 out of a pool of  8 trial point group operations.


The static configuration has the point symmetry C_1 .


Analysis of symmetry for dynamics (positions and initial velocities):
=====================================================================
 Subroutine PRICEL returns:
 Original cell was already a primitive cell.
 

 Routine SETGRP: Setting up the symmetry group for a 
 simple orthorhombic supercell.


 Subroutine GETGRP returns: Found  1 space group operations
 (whereof  1 operations were pure point group operations)
 out of a pool of  8 trial point group operations.


The dynamic configuration has the point symmetry C_1 .


Analysis of constrained symmetry for selective dynamics:
=====================================================================
 Subroutine PRICEL returns:
 Original cell was already a primitive cell.
 

 Routine SETGRP: Setting up the symmetry group for a 
 simple orthorhombic supercell.


 Subroutine GETGRP returns: Found  1 space group operations
 (whereof  1 operations were pure point group operations)
 out of a pool of  8 trial point group operations.


The constrained configuration has the point symmetry C_1 .


 Subroutine INISYM returns: Found  1 space group operations
 (whereof  1 operations are pure point group operations),
 and found     1 'primitive' translations

 
 
 KPOINTS: k-points                                

Automatic generation of k-mesh.
Space group operators:
 irot       det(A)        alpha          n_x          n_y          n_z        tau_x        tau_y        tau_z
    1     1.000000     0.000000     1.000000     0.000000     0.000000     0.000000     0.000000     0.000000
 
 Subroutine IBZKPT returns following result:
 ===========================================
 
 Found      5 irreducible k-points:
 
 Following reciprocal coordinates:
            Coordinates               Weight
  0.000000  0.000000  0.000000      1.000000
  0.333333  0.000000  0.000000      2.000000
  0.000000  0.333333  0.000000      2.000000
  0.333333  0.333333  0.000000      2.000000
 -0.333333  0.333333  0.000000      2.000000
 
 Following cartesian coordinates:
            Coordinates               Weight
  0.000000  0.000000  0.000000      1.000000
  0.024205  0.000000  0.000000      2.000000
  0.000000  0.034851  0.000000      2.000000
  0.024205  0.034851  0.000000      2.000000
 -0.024205  0.034851  0.000000      2.000000
 


--------------------------------------------------------------------------------------------------------




 Dimension of arrays:
   k-points           NKPTS =      5   k-points in BZ     NKDIM =      5   number of bands    NBANDS=    208
   number of dos      NEDOS =    301   number of ions     NIONS =     64
   non local maximal  LDIM  =      6   non local SUM 2l+1 LMDIM =     18
   total plane-waves  NPLWV = 846720
   max r-space proj   IRMAX =   4874   max aug-charges    IRDMAX=  25433
   dimension x,y,z NGX =    84 NGY =   60 NGZ =  168
   dimension x,y,z NGXF=   168 NGYF=  120 NGZF=  336
   support grid    NGXF=   168 NGYF=  120 NGZF=  336
   ions per type =               6  10   4  18  26
 NGX,Y,Z   is equivalent  to a cutoff of  10.14, 10.43, 10.10 a.u.
 NGXF,Y,Z  is equivalent  to a cutoff of  20.28, 20.86, 20.19 a.u.


 I would recommend the setting:
   dimension x,y,z NGX =    83 NGY =   57 NGZ =  166
 SYSTEM =  (110) surface                           
 POSCAR =  Al Nb Ta Ti Zr                          

 Startparameter for this run:
   NWRITE =      2    write-flag & timer
   PREC   = normal    normal or accurate (medium, high low for compatibility)
   ISTART =      0    job   : 0-new  1-cont  2-samecut
   ICHARG =      2    charge: 1-file 2-atom 10-const
   ISPIN  =      1    spin polarized calculation?
   LNONCOLLINEAR =      F non collinear calculations
   LSORBIT =      F    spin-orbit coupling
   INIWAV =      1    electr: 0-lowe 1-rand  2-diag
   LASPH  =      F    aspherical Exc in radial PAW
   METAGGA=      F    non-selfconsistent MetaGGA calc.

 Electronic Relaxation 1
   ENCUT  =  600.0 eV  44.10 Ry    6.64 a.u.  27.50 19.10 55.25*2*pi/ulx,y,z
   ENINI  =  600.0     initial cutoff
   ENAUG  =  455.7 eV  augmentation charge cutoff
   NELM   =     60;   NELMIN=  2; NELMDL= -5     # of ELM steps 
   EDIFF  = 0.1E-03   stopping-criterion for ELM
   LREAL  =      T    real-space projection
   NLSPLINE    = F    spline interpolate recip. space projectors
   LCOMPAT=      F    compatible to vasp.4.4
   GGA_COMPAT  = T    GGA compatible to vasp.4.4-vasp.4.6
   LMAXPAW     = -100 max onsite density
   LMAXMIX     =    2 max onsite mixed and CHGCAR
   VOSKOWN=      0    Vosko Wilk Nusair interpolation
   ROPT   =   -0.00050  -0.00050  -0.00050  -0.00050
   ROPT   =   -0.00050
 Ionic relaxation
   EDIFFG = -.1E-01   stopping-criterion for IOM
   NSW    =      0    number of steps for IOM
   NBLOCK =      1;   KBLOCK =      1    inner block; outer block 
   IBRION =     -1    ionic relax: 0-MD 1-quasi-New 2-CG
   NFREE  =      0    steps in history (QN), initial steepest desc. (CG)
   ISIF   =      2    stress and relaxation
   IWAVPR =     10    prediction:  0-non 1-charg 2-wave 3-comb
   ISYM   =      2    0-nonsym 1-usesym 2-fastsym
   LCORR  =      T    Harris-Foulkes like correction to forces

   POTIM  = 0.1000    time-step for ionic-motion
   TEIN   =    0.0    initial temperature
   TEBEG  =    0.0;   TEEND  =   0.0 temperature during run
   SMASS  =  -3.00    Nose mass-parameter (am)
   estimated Nose-frequenzy (Omega)   =  0.10E-29 period in steps =****** mass=  -0.433E-26a.u.
   SCALEE = 1.0000    scale energy and forces
   NPACO  =    256;   APACO  = 16.0  distance and # of slots for P.C.
   PSTRESS=    0.0 pullay stress

  Mass of Ions in am
   POMASS =  26.98 92.91180.95 47.88 91.22
  Ionic Valenz
   ZVAL   =   3.00 13.00  5.00  4.00  4.00
  Atomic Wigner-Seitz radii
   RWIGS  =  -1.00 -1.00 -1.00 -1.00 -1.00
  virtual crystal weights 
   VCA    =   1.00  1.00  1.00  1.00  1.00
   NELECT =     344.0000    total number of electrons
   NUPDOWN=      -1.0000    fix difference up-down

 DOS related values:
   EMIN   =  10.00;   EMAX   =-10.00  energy-range for DOS
   EFERMI =   0.00
   ISMEAR =     2;   SIGMA  =   0.10  broadening in eV -4-tet -1-fermi 0-gaus

 Electronic relaxation 2 (details)
   IALGO  =     68    algorithm
   LDIAG  =      T    sub-space diagonalisation (order eigenvalues)
   LSUBROT=      F    optimize rotation matrix (better conditioning)
   TURBO    =      0    0=normal 1=particle mesh
   IRESTART =      0    0=no restart 2=restart with 2 vectors
   NREBOOT  =      0    no. of reboots
   NMIN     =      0    reboot dimension
   EREF     =   0.00    reference energy to select bands
   IMIX   =      4    mixing-type and parameters
     AMIX     =   0.40;   BMIX     =  1.00
     AMIX_MAG =   1.60;   BMIX_MAG =  1.00
     AMIN     =   0.10
     WC   =   100.;   INIMIX=   1;  MIXPRE=   1;  MAXMIX= -45

 Intra band minimization:
   WEIMIN = 0.0000     energy-eigenvalue tresh-hold
   EBREAK =  0.12E-06  absolut break condition
   DEPER  =   0.30     relativ break condition  

   TIME   =   0.40     timestep for ELM

  volume/ion in A,a.u.               =      56.93       384.19
  Fermi-wavevector in a.u.,A,eV,Ry     =   0.745448  1.408693  7.560663  0.555693
  Thomas-Fermi vector in A             =   1.841037
 
 Write flags
   LWAVE  =      F    write WAVECAR
   LCHARG =      F    write CHGCAR
   LVTOT  =      F    write LOCPOT, total local potential
   LVHAR  =      T    write LOCPOT, Hartree potential only
   LELF   =      F    write electronic localiz. function (ELF)
   LORBIT =      0    0 simple, 1 ext, 2 COOP (PROOUT)


 Dipole corrections
   LMONO  =      F    monopole corrections only (constant potential shift)
   LDIPOL =      F    correct potential (dipole corrections)
   IDIPOL =      0    1-x, 2-y, 3-z, 4-all directions 
   EPSILON=  1.0000000 bulk dielectric constant

 Exchange correlation treatment:
   GGA     =    --    GGA type
   LEXCH   =     8    internal setting for exchange type
   VOSKOWN=      0    Vosko Wilk Nusair interpolation
   LHFCALC =     F    Hartree Fock is set to
   LHFONE  =     F    Hartree Fock one center treatment
   AEXX    =    0.0000 exact exchange contribution

 Linear response parameters
   LEPSILON=     F    determine dielectric tensor
   LRPA    =     F    only Hartree local field effects (RPA)
   LNABLA  =     F    use nabla operator in PAW spheres
   LVEL    =     F    velocity operator in full k-point grid
   LINTERFAST=   F  fast interpolation
   KINTER  =     0    interpolate to denser k-point grid
   CSHIFT  =0.1000    complex shift for real part using Kramers Kronig
   OMEGAMAX=  -1.0    maximum frequency
   DEG_THRESHOLD= 0.2000000E-02 threshold for treating states as degnerate
   RTIME   =    0.100 relaxation time in fs

 Orbital magnetization related:
   ORBITALMAG=     F  switch on orbital magnetization
   LCHIMAG   =     F  perturbation theory with respect to B field
   DQ        =  0.001000  dq finite difference perturbation B field



--------------------------------------------------------------------------------------------------------


 Static calculation
 charge density and potential will be updated during run
 non-spin polarized calculation
 RMM-DIIS sequential band-by-band and
  variant of blocked Davidson during initial phase
 perform sub-space diagonalisation
    before iterative eigenvector-optimisation
 modified Broyden-mixing scheme, WC =      100.0
 initial mixing is a Kerker type mixing with AMIX =  0.4000 and BMIX =      1.0000
 Hartree-type preconditioning will be used
 using additional bands           36
 real space projection scheme for non local part
 use partial core corrections
 calculate Harris-corrections to forces 
   (improved forces if not selfconsistent)
 use gradient corrections 
 use of overlap-Matrix (Vanderbilt PP)
 Methfessel and Paxton  Order N= 2 SIGMA  =   0.10


--------------------------------------------------------------------------------------------------------


  energy-cutoff  :      600.00
  volume of cell :     3643.60
      direct lattice vectors                 reciprocal lattice vectors
    13.771350861  0.000000000  0.000000000     0.072614518  0.000000000  0.000000000
     0.000000000  9.564481735  0.000000000     0.000000000  0.104553496  0.000000000
     0.000000000  0.000000000 27.662570434     0.000000000  0.000000000  0.036149931

  length of vectors
    13.771350861  9.564481735 27.662570434     0.072614518  0.104553496  0.036149931


 
 k-points in units of 2pi/SCALE and weight: k-points                                
   0.00000000  0.00000000  0.00000000       0.111
   0.02420484  0.00000000  0.00000000       0.222
   0.00000000  0.03485117  0.00000000       0.222
   0.02420484  0.03485117  0.00000000       0.222
  -0.02420484  0.03485117  0.00000000       0.222
 
 k-points in reciprocal lattice and weights: k-points                                
   0.00000000  0.00000000  0.00000000       0.111
   0.33333333  0.00000000  0.00000000       0.222
   0.00000000  0.33333333  0.00000000       0.222
   0.33333333  0.33333333  0.00000000       0.222
  -0.33333333  0.33333333  0.00000000       0.222
 
 position of ions in fractional coordinates (direct lattice) 
   0.62276447  0.86746430  0.37590333
   0.62212456  0.39284279  0.54647874
   0.61695553  0.63289640  0.62592425
   0.61839700  0.08363760  0.44965952
   0.97705665  0.63751477  0.55391662
   0.97963780  0.12056648  0.37767599
   0.72857308  0.34338307  0.45816820
   0.71960278  0.89715300  0.62169937
   0.51739597  0.60805875  0.36719826
   0.51301990  0.13190225  0.54004601
   0.61811078  0.34297293  0.36889183
   0.61790115  0.87440309  0.53807946
   0.74231148  0.84345710  0.46199300
   0.73754432  0.39643282  0.63025943
   0.39405298  0.84738672  0.36896032
   0.39128144  0.37094665  0.54111901
   0.61928761  0.60162497  0.45752798
   0.61889206  0.14639905  0.62225377
   0.27944195  0.83362269  0.45088327
   0.28075084  0.38847699  0.61990788
   0.27776094  0.59486082  0.53905432
   0.28324246  0.07725573  0.36149931
   0.73577645  0.63371198  0.54033334
   0.74002355  0.11549973  0.36646499
   0.49591756  0.83582580  0.45790018
   0.50129225  0.38586035  0.62747203
   0.83581873  0.64545836  0.62377316
   0.84724605  0.11017048  0.45460239
   0.85243583  0.34907103  0.37639265
   0.85182531  0.86810178  0.55243063
   0.52175105  0.33942658  0.46105252
   0.51977620  0.89924278  0.62362301
   0.49931993  0.62490299  0.53917118
   0.49943882  0.10200214  0.36464270
   0.40016663  0.58028412  0.45130253
   0.39343516  0.13855661  0.62076294
   0.25505811  0.36595738  0.46399110
   0.23707123  0.91542060  0.62516551
   0.25182599  0.61397660  0.37627308
   0.24464138  0.13230340  0.54896263
   0.86539888  0.85904646  0.37036829
   0.86524609  0.37981842  0.54479138
   0.38059813  0.35186696  0.37331264
   0.37528568  0.87091300  0.54829524
   0.38529756  0.64359037  0.62759517
   0.38408008  0.10357511  0.45579618
   0.11657381  0.61110574  0.46457054
   0.11410122  0.18439712  0.63481064
   0.99629861  0.59295863  0.36811234
   0.99445507  0.11240349  0.54713335
   0.11869311  0.87196302  0.37467704
   0.11575866  0.39278269  0.54951495
   0.99977952  0.33051389  0.45306987
   0.00029208  0.87926931  0.62560891
   0.14482272  0.33176249  0.36788561
   0.13324216  0.84505581  0.54064745
   0.97888047  0.87608504  0.46520830
   0.96570850  0.42799877  0.64057856
   0.14748748  0.63445999  0.62201354
   0.14721048  0.09173214  0.45072276
   0.73135245  0.60578495  0.36679988
   0.73478036  0.12811267  0.53870902
   0.86923259  0.59196168  0.45825814
   0.85828560  0.14070552  0.63258178
 
 position of ions in cartesian coordinates  (Angst):
   8.57630799  8.29684649 10.39845223
   8.56749566  3.75733772 15.11700666
   8.49631101  6.05332609 17.31467358
   8.51616202  0.79995025 12.43873821
  13.45539000  6.09749837 15.32275740
  13.49093588  1.15315590 10.44748880
  10.03343557  3.28428114 12.67411000
   9.90990239  8.58080347 17.19780266
   7.12524148  5.81576681 10.15764776
   7.06497698  1.26157663 14.93906069
   8.51222037  3.28035836 10.20449636
   8.50933357  8.36321240 14.88466101
  10.22263181  8.06723005 12.77991378
  10.15698165  3.79167448 17.43459577
   5.42664188  8.10481479 10.20639088
   5.38847403  3.54791246 14.96874277
   8.52842696  5.75423100 12.65640004
   8.52297967  1.40023102 17.21313863
   3.84829318  7.97316903 12.47259035
   3.86631832  3.71558107 17.14824540
   3.82514341  5.68953543 14.91162806
   3.90063135  0.73891098 10.00000000
  10.13263563  6.06112663 14.94700910
  10.19112400  1.10469510 10.13736353
   6.82945470  7.99424061 12.66669595
   6.90347151  3.69055424 17.35748936
  11.51035301  6.17347468 17.25516904
  11.66772263  1.05372358 12.57547056
  11.73919286  3.33868345 10.41198829
  11.73078516  8.30294365 15.28165135
   7.18521672  3.24643930 12.75389771
   7.15802039  8.60079119 17.25101539
   6.87630995  5.97687325 14.91486062
   6.87794726  0.97559764 10.08695433
   5.51083508  5.55011685 12.48418803
   5.41813364  1.32522214 17.17189860
   3.51249472  3.50019267 12.83518635
   3.26479105  8.75552358 17.29368499
   3.46798404  5.87236796 10.40868071
   3.36904224  1.26541344 15.18571746
  11.91771166  8.21633417 10.24533883
  11.91560755  3.63276631 15.07032990
   5.24135036  3.36542512 10.32678719
   5.16819073  8.32983148 15.16725561
   5.30606793  6.15560829 17.36089547
   5.28930157  0.99064225 12.60849381
   1.60537885  5.84490969 12.85121538
   1.57132792  1.76366293 17.56049407
  13.72037774  5.67134198 10.18293350
  13.69498974  1.07508115 15.13511476
   1.63456451  8.33987442 10.36453009
   1.59415312  3.75676289 15.20099589
  13.76831459  3.16119411 12.53307716
   0.00402236  8.40975524 17.30595045
   1.99440444  3.17313630 10.17666150
   1.83492453  8.08252085 14.95569825
  13.48050634  8.37929939 12.86885734
  13.29911060  4.09358639 17.72004966
   2.03110183  6.06828099 17.20649339
   2.02728715  0.87737042 12.46815015
  10.07171117  5.79401911 10.14662739
  10.11891815  1.22533130 14.90207633
  11.97050705  5.66180669 12.67659812
  11.81975211  1.34577535 17.49883797
 


--------------------------------------------------------------------------------------------------------


 k-point  1 :   0.0000 0.0000 0.0000  plane waves:  121663
 k-point  2 :   0.3333 0.0000 0.0000  plane waves:  121577
 k-point  3 :   0.0000 0.3333 0.0000  plane waves:  121622
 k-point  4 :   0.3333 0.3333 0.0000  plane waves:  121647
 k-point  5 :  -0.3333 0.3333 0.0000  plane waves:  121647

 maximum and minimum number of plane-waves per node :      5107     5041

 maximum number of plane-waves:    121663
 maximum index in each direction: 
   IXMAX=   27   IYMAX=   19   IZMAX=   55
   IXMIN=  -27   IYMIN=  -19   IZMIN=  -55

 WARNING: aliasing errors must be expected set NGX to 110 to avoid them
 WARNING: aliasing errors must be expected set NGY to  78 to avoid them
 WARNING: aliasing errors must be expected set NGZ to 222 to avoid them
 aliasing errors are usually negligible using standard VASP settings
 and one can safely disregard these warnings

 real space projection operators:
  total allocation   :      29329.86 KBytes
  max/ min on nodes  :       1420.43        991.59


 parallel 3D FFT for wavefunctions:
    minimum data exchange during FFTs selected (reduces bandwidth)
 parallel 3D FFT for charge:
    minimum data exchange during FFTs selected (reduces bandwidth)


 total amount of memory used by VASP on root node    70204. kBytes
========================================================================

   base      :      30000. kBytes
   nonlr-proj:       6855. kBytes
   fftplans  :       3890. kBytes
   grid      :       8098. kBytes
   one-center:         46. kBytes
   wavefun   :      21315. kBytes
 
     INWAV:  cpu time    0.0000: real time    0.0000
 Broyden mixing: mesh for mixing (old mesh)
   NGX = 55   NGY = 39   NGZ =111
  (NGX  =168   NGY  =120   NGZ  =336)
  gives a total of 238095 points

 initial charge density was supplied:
 charge density of overlapping atoms calculated
 number of electron     344.0000000 magnetization 
 keeping initial charge density in first step


--------------------------------------------------------------------------------------------------------


 Maximum index for non-local projection operator          391
 Maximum index for augmentation-charges         1033 (set IRDMAX)


--------------------------------------------------------------------------------------------------------


 First call to EWALD:  gamma=   0.115
 Maximum number of real-space cells 3x 4x 2
 Maximum number of reciprocal cells 3x 2x 5

 FEWALD executed in parallel
    FEWALD:  cpu time    0.0019: real time    0.0019


----------------------------------------- Iteration    1(   1)  ---------------------------------------


    POTLOK:  cpu time    0.0631: real time    0.0676
    SETDIJ:  cpu time    0.0131: real time    0.0148
     EDDAV:  cpu time    4.7370: real time    4.7681
       DOS:  cpu time    0.0009: real time    0.0009
    --------------------------------------------
      LOOP:  cpu time    4.8182: real time    4.8605

 eigenvalue-minimisations  :  2224
 total energy-change (2. order) : 0.3764482E+04  (-0.1242683E+05)
 number of electron     344.0000000 magnetization 
 augmentation part      344.0000000 magnetization 

 Free energy of the ion-electron system (eV)
  ---------------------------------------------------
  alpha Z        PSCENC =       507.55867208
  Ewald energy   TEWEN  =     70007.88017103
  -Hartree energ DENC   =    -88062.12768533
  -exchange      EXHF   =         0.00000000
  -V(xc)+E(xc)   XCENC  =     -3088.73923910
  PAW double counting   =     19439.28112317   -15348.04734391
  entropy T*S    EENTRO =        -0.00070040
  eigenvalues    EBANDS =       182.67489356
  atomic energy  EATOM  =     20126.00256125
  Solvation  Ediel_sol  =         0.00000000
  ---------------------------------------------------
  free energy    TOTEN  =      3764.48245236 eV

  energy without entropy =     3764.48315275  energy(sigma->0) =     3764.48262746


--------------------------------------------------------------------------------------------------------




----------------------------------------- Iteration    1(   2)  ---------------------------------------


     EDDAV:  cpu time    4.8777: real time    4.8786
       DOS:  cpu time    0.0008: real time    0.0008
    --------------------------------------------
      LOOP:  cpu time    4.8801: real time    4.8822

 eigenvalue-minimisations  :  2344
 total energy-change (2. order) :-0.3528780E+04  (-0.3430523E+04)
 number of electron     344.0000000 magnetization 
 augmentation part      344.0000000 magnetization 

 Free energy of the ion-electron system (eV)
  ---------------------------------------------------
  alpha Z        PSCENC =       507.55867208
  Ewald energy   TEWEN  =     70007.88017103
  -Hartree energ DENC   =    -88062.12768533
  -exchange      EXHF   =         0.00000000
  -V(xc)+E(xc)   XCENC  =     -3088.73923910
  PAW double counting   =     19439.28112317   -15348.04734391
  entropy T*S    EENTRO =        -0.00930670
  eigenvalues    EBANDS =     -3346.09683037
  atomic energy  EATOM  =     20126.00256125
  Solvation  Ediel_sol  =         0.00000000
  ---------------------------------------------------
  free energy    TOTEN  =       235.70212212 eV

  energy without entropy =      235.71142882  energy(sigma->0) =      235.70444879


--------------------------------------------------------------------------------------------------------




----------------------------------------- Iteration    1(   3)  ---------------------------------------


     EDDAV:  cpu time    6.9405: real time    6.9418
       DOS:  cpu time    0.0008: real time    0.0008
    --------------------------------------------
      LOOP:  cpu time    6.9425: real time    6.9481

 eigenvalue-minimisations  :  3648
 total energy-change (2. order) :-0.7094642E+03  (-0.6876223E+03)
 number of electron     344.0000000 magnetization 
 augmentation part      344.0000000 magnetization 

 Free energy of the ion-electron system (eV)
  ---------------------------------------------------
  alpha Z        PSCENC =       507.55867208
  Ewald energy   TEWEN  =     70007.88017103
  -Hartree energ DENC   =    -88062.12768533
  -exchange      EXHF   =         0.00000000
  -V(xc)+E(xc)   XCENC  =     -3088.73923910
  PAW double counting   =     19439.28112317   -15348.04734391
  entropy T*S    EENTRO =         0.00558869
  eigenvalues    EBANDS =     -4055.57594679
  atomic energy  EATOM  =     20126.00256125
  Solvation  Ediel_sol  =         0.00000000
  ---------------------------------------------------
  free energy    TOTEN  =      -473.76209891 eV

  energy without entropy =     -473.76768759  energy(sigma->0) =     -473.76349608


--------------------------------------------------------------------------------------------------------




----------------------------------------- Iteration    1(   4)  ---------------------------------------


     EDDAV:  cpu time    6.8867: real time    6.8869
       DOS:  cpu time    0.0008: real time    0.0008
    --------------------------------------------
      LOOP:  cpu time    6.8887: real time    6.8903

 eigenvalue-minimisations  :  3608
 total energy-change (2. order) :-0.8822370E+02  (-0.8440483E+02)
 number of electron     344.0000000 magnetization 
 augmentation part      344.0000000 magnetization 

 Free energy of the ion-electron system (eV)
  ---------------------------------------------------
  alpha Z        PSCENC =       507.55867208
  Ewald energy   TEWEN  =     70007.88017103
  -Hartree energ DENC   =    -88062.12768533
  -exchange      EXHF   =         0.00000000
  -V(xc)+E(xc)   XCENC  =     -3088.73923910
  PAW double counting   =     19439.28112317   -15348.04734391
  entropy T*S    EENTRO =         0.00892010
  eigenvalues    EBANDS =     -4143.80297696
  atomic energy  EATOM  =     20126.00256125
  Solvation  Ediel_sol  =         0.00000000
  ---------------------------------------------------
  free energy    TOTEN  =      -561.98579767 eV

  energy without entropy =     -561.99471776  energy(sigma->0) =     -561.98802769


--------------------------------------------------------------------------------------------------------




----------------------------------------- Iteration    1(   5)  ---------------------------------------


     EDDAV:  cpu time    7.2512: real time    7.2518
       DOS:  cpu time    0.0008: real time    0.0008
    CHARGE:  cpu time    0.1505: real time    0.1517
    MIXING:  cpu time    0.0070: real time    0.0077
    --------------------------------------------
      LOOP:  cpu time    7.4109: real time    7.4149

 eigenvalue-minimisations  :  3840
 total energy-change (2. order) :-0.1314330E+02  (-0.1275455E+02)
 number of electron     344.0000005 magnetization 
 augmentation part       41.9220005 magnetization 

 Broyden mixing:
  rms(total) = 0.58322E+01    rms(broyden)= 0.58322E+01
  rms(prec ) = 0.64746E+01
  weight for this iteration     100.00

 Free energy of the ion-electron system (eV)
  ---------------------------------------------------
  alpha Z        PSCENC =       507.55867208
  Ewald energy   TEWEN  =     70007.88017103
  -Hartree energ DENC   =    -88062.12768533
  -exchange      EXHF   =         0.00000000
  -V(xc)+E(xc)   XCENC  =     -3088.73923910
  PAW double counting   =     19439.28112317   -15348.04734391
  entropy T*S    EENTRO =         0.01270373
  eigenvalues    EBANDS =     -4156.95005968
  atomic energy  EATOM  =     20126.00256125
  Solvation  Ediel_sol  =         0.00000000
  ---------------------------------------------------
  free energy    TOTEN  =      -575.12909676 eV

  energy without entropy =     -575.14180049  energy(sigma->0) =     -575.13227269


--------------------------------------------------------------------------------------------------------




----------------------------------------- Iteration    1(   6)  ---------------------------------------


    POTLOK:  cpu time    0.0522: real time    0.0522
    SETDIJ:  cpu time    0.0062: real time    0.0061
    EDDIAG:  cpu time    0.7413: real time    0.7422
  RMM-DIIS:  cpu time    4.1437: real time    4.1445
    ORTHCH:  cpu time    0.2120: real time    0.2120
       DOS:  cpu time    0.0009: real time    0.0009
    CHARGE:  cpu time    0.1498: real time    0.1498
    MIXING:  cpu time    0.0035: real time    0.0059
    --------------------------------------------
      LOOP:  cpu time    5.3114: real time    5.3180

 eigenvalue-minimisations  :  3761
 total energy-change (2. order) :-0.5426258E+02  (-0.1455495E+03)
 number of electron     344.0000002 magnetization 
 augmentation part       57.1268610 magnetization 

 Broyden mixing:
  rms(total) = 0.42492E+01    rms(broyden)= 0.42492E+01
  rms(prec ) = 0.54524E+01
  weight for this iteration     100.00

 eigenvalues of (default mixing * dielectric matrix)
  average eigenvalue GAMMA=   0.6964
  0.6964

 Free energy of the ion-electron system (eV)
  ---------------------------------------------------
  alpha Z        PSCENC =       507.55867208
  Ewald energy   TEWEN  =     70007.88017103
  -Hartree energ DENC   =    -88718.22955741
  -exchange      EXHF   =         0.00000000
  -V(xc)+E(xc)   XCENC  =     -3080.27453390
  PAW double counting   =     22745.00007050   -18655.66493819
  entropy T*S    EENTRO =        -0.01782193
  eigenvalues    EBANDS =     -3561.64629564
  atomic energy  EATOM  =     20126.00256125
  Solvation  Ediel_sol  =         0.00000000
  ---------------------------------------------------
  free energy    TOTEN  =      -629.39167221 eV

  energy without entropy =     -629.37385028  energy(sigma->0) =     -629.38721673


--------------------------------------------------------------------------------------------------------




----------------------------------------- Iteration    1(   7)  ---------------------------------------


    POTLOK:  cpu time    0.0490: real time    0.0490
    SETDIJ:  cpu time    0.0060: real time    0.0060
    EDDIAG:  cpu time    0.7467: real time    0.7467
  RMM-DIIS:  cpu time    2.6978: real time    2.6979
    ORTHCH:  cpu time    0.2118: real time    0.2118
       DOS:  cpu time    0.0009: real time    0.0009
    CHARGE:  cpu time    0.1460: real time    0.1460
    MIXING:  cpu time    0.0019: real time    0.0024
    --------------------------------------------
      LOOP:  cpu time    3.8617: real time    3.8648

 eigenvalue-minimisations  :  2410
 total energy-change (2. order) : 0.1091664E+03  (-0.3308950E+02)
 number of electron     344.0000005 magnetization 
 augmentation part       48.5124105 magnetization 

 Broyden mixing:
  rms(total) = 0.27005E+01    rms(broyden)= 0.27005E+01
  rms(prec ) = 0.32471E+01
  weight for this iteration     100.00

 eigenvalues of (default mixing * dielectric matrix)
  average eigenvalue GAMMA=   0.7830
  1.2076  0.3584

 Free energy of the ion-electron system (eV)
  ---------------------------------------------------
  alpha Z        PSCENC =       507.55867208
  Ewald energy   TEWEN  =     70007.88017103
  -Hartree energ DENC   =    -88324.83956506
  -exchange      EXHF   =         0.00000000
  -V(xc)+E(xc)   XCENC  =     -3080.73486122
  PAW double counting   =     23059.89726639   -18982.98943191
  entropy T*S    EENTRO =        -0.00479378
  eigenvalues    EBANDS =     -3832.99532202
  atomic energy  EATOM  =     20126.00256125
  Solvation  Ediel_sol  =         0.00000000
  ---------------------------------------------------
  free energy    TOTEN  =      -520.22530324 eV

  energy without entropy =     -520.22050947  energy(sigma->0) =     -520.22410480


--------------------------------------------------------------------------------------------------------




----------------------------------------- Iteration    1(   8)  ---------------------------------------


    POTLOK:  cpu time    0.0493: real time    0.0493
    SETDIJ:  cpu time    0.0062: real time    0.0062
    EDDIAG:  cpu time    0.7479: real time    0.7480
  RMM-DIIS:  cpu time    3.6070: real time    3.6071
    ORTHCH:  cpu time    0.2112: real time    0.2112
       DOS:  cpu time    0.0009: real time    0.0009
    CHARGE:  cpu time    0.1455: real time    0.1455
    MIXING:  cpu time    0.0019: real time    0.0019
    --------------------------------------------
      LOOP:  cpu time    4.7715: real time    4.7741

 eigenvalue-minimisations  :  3253
 total energy-change (2. order) : 0.6723267E+00  (-0.1185012E+02)
 number of electron     344.0000004 magnetization 
 augmentation part       47.9692374 magnetization 

 Broyden mixing:
  rms(total) = 0.19202E+01    rms(broyden)= 0.19202E+01
  rms(prec ) = 0.26714E+01
  weight for this iteration     100.00

 eigenvalues of (default mixing * dielectric matrix)
  average eigenvalue GAMMA=   0.7554
  1.4972  0.4045  0.3644

 Free energy of the ion-electron system (eV)
  ---------------------------------------------------
  alpha Z        PSCENC =       507.55867208
  Ewald energy   TEWEN  =     70007.88017103
  -Hartree energ DENC   =    -88392.60091425
  -exchange      EXHF   =         0.00000000
  -V(xc)+E(xc)   XCENC  =     -3077.92017510
  PAW double counting   =     24026.83240331   -19950.94185661
  entropy T*S    EENTRO =         0.00400926
  eigenvalues    EBANDS =     -3766.36784747
  atomic energy  EATOM  =     20126.00256125
  Solvation  Ediel_sol  =         0.00000000
  ---------------------------------------------------
  free energy    TOTEN  =      -519.55297650 eV

  energy without entropy =     -519.55698576  energy(sigma->0) =     -519.55397882


--------------------------------------------------------------------------------------------------------




----------------------------------------- Iteration    1(   9)  ---------------------------------------


    POTLOK:  cpu time    0.0492: real time    0.0492
    SETDIJ:  cpu time    0.0060: real time    0.0060
    EDDIAG:  cpu time    0.7503: real time    0.7503
  RMM-DIIS:  cpu time    4.3119: real time    4.3119
    ORTHCH:  cpu time    0.2108: real time    0.2108
       DOS:  cpu time    0.0008: real time    0.0008
    CHARGE:  cpu time    0.1491: real time    0.1491
    MIXING:  cpu time    0.0021: real time    0.0028
    --------------------------------------------
      LOOP:  cpu time    5.4819: real time    5.4851

 eigenvalue-minimisations  :  3894
 total energy-change (2. order) :-0.2291161E+00  (-0.5575461E+01)
 number of electron     344.0000001 magnetization 
 augmentation part       49.3127322 magnetization 

 Broyden mixing:
  rms(total) = 0.19163E+01    rms(broyden)= 0.19163E+01
  rms(prec ) = 0.35725E+01
  weight for this iteration     100.00

 eigenvalues of (default mixing * dielectric matrix)
  average eigenvalue GAMMA=   0.6458
  1.5717  0.4056  0.4056  0.2004

 Free energy of the ion-electron system (eV)
  ---------------------------------------------------
  alpha Z        PSCENC =       507.55867208
  Ewald energy   TEWEN  =     70007.88017103
  -Hartree energ DENC   =    -88451.74115550
  -exchange      EXHF   =         0.00000000
  -V(xc)+E(xc)   XCENC  =     -3074.83998016
  PAW double counting   =     24628.45798584   -20549.12407631
  entropy T*S    EENTRO =         0.00209329
  eigenvalues    EBANDS =     -3713.97836408
  atomic energy  EATOM  =     20126.00256125
  Solvation  Ediel_sol  =         0.00000000
  ---------------------------------------------------
  free energy    TOTEN  =      -519.78209256 eV

  energy without entropy =     -519.78418586  energy(sigma->0) =     -519.78261589


--------------------------------------------------------------------------------------------------------




----------------------------------------- Iteration    1(  10)  ---------------------------------------


    POTLOK:  cpu time    0.0494: real time    0.0494
    SETDIJ:  cpu time    0.0060: real time    0.0060
    EDDIAG:  cpu time    0.7521: real time    0.7521
  RMM-DIIS:  cpu time    4.2400: real time    4.2400
    ORTHCH:  cpu time    0.2102: real time    0.2102
       DOS:  cpu time    0.0009: real time    0.0009
    CHARGE:  cpu time    0.1487: real time    0.1487
    MIXING:  cpu time    0.0021: real time    0.0021
    --------------------------------------------
      LOOP:  cpu time    5.4109: real time    5.4136

 eigenvalue-minimisations  :  3836
 total energy-change (2. order) : 0.1235698E+02  (-0.1994601E+01)
 number of electron     344.0000003 magnetization 
 augmentation part       48.7803605 magnetization 

 Broyden mixing:
  rms(total) = 0.11351E+01    rms(broyden)= 0.11351E+01
  rms(prec ) = 0.16737E+01
  weight for this iteration     100.00

 eigenvalues of (default mixing * dielectric matrix)
  average eigenvalue GAMMA=   0.6009
  1.5718  0.5018  0.5018  0.3044  0.1246

 Free energy of the ion-electron system (eV)
  ---------------------------------------------------
  alpha Z        PSCENC =       507.55867208
  Ewald energy   TEWEN  =     70007.88017103
  -Hartree energ DENC   =    -88476.49160211
  -exchange      EXHF   =         0.00000000
  -V(xc)+E(xc)   XCENC  =     -3073.54324151
  PAW double counting   =     24903.92960659   -20822.85893369
  entropy T*S    EENTRO =        -0.01273427
  eigenvalues    EBANDS =     -3679.88961314
  atomic energy  EATOM  =     20126.00256125
  Solvation  Ediel_sol  =         0.00000000
  ---------------------------------------------------
  free energy    TOTEN  =      -507.42511378 eV

  energy without entropy =     -507.41237951  energy(sigma->0) =     -507.42193021


--------------------------------------------------------------------------------------------------------




----------------------------------------- Iteration    1(  11)  ---------------------------------------


    POTLOK:  cpu time    0.0497: real time    0.0497
    SETDIJ:  cpu time    0.0060: real time    0.0060
    EDDIAG:  cpu time    0.7558: real time    0.7558
  RMM-DIIS:  cpu time    4.1530: real time    4.1531
    ORTHCH:  cpu time    0.2110: real time    0.2110
       DOS:  cpu time    0.0009: real time    0.0009
    CHARGE:  cpu time    0.1473: real time    0.1473
    MIXING:  cpu time    0.0022: real time    0.0022
    --------------------------------------------
      LOOP:  cpu time    5.3277: real time    5.3301

 eigenvalue-minimisations  :  3702
 total energy-change (2. order) : 0.1862439E+01  (-0.1371893E+01)
 number of electron     344.0000004 magnetization 
 augmentation part       48.8751600 magnetization 

 Broyden mixing:
  rms(total) = 0.77947E+00    rms(broyden)= 0.77947E+00
  rms(prec ) = 0.94797E+00
  weight for this iteration     100.00

 eigenvalues of (default mixing * dielectric matrix)
  average eigenvalue GAMMA=   0.6212
  1.5134  0.7593  0.7593  0.3222  0.2497  0.1231

 Free energy of the ion-electron system (eV)
  ---------------------------------------------------
  alpha Z        PSCENC =       507.55867208
  Ewald energy   TEWEN  =     70007.88017103
  -Hartree energ DENC   =    -88495.03809622
  -exchange      EXHF   =         0.00000000
  -V(xc)+E(xc)   XCENC  =     -3072.62593730
  PAW double counting   =     25066.55071024   -20982.78488734
  entropy T*S    EENTRO =        -0.00474157
  eigenvalues    EBANDS =     -3663.10112693
  atomic energy  EATOM  =     20126.00256125
  Solvation  Ediel_sol  =         0.00000000
  ---------------------------------------------------
  free energy    TOTEN  =      -505.56267475 eV

  energy without entropy =     -505.55793318  energy(sigma->0) =     -505.56148936


--------------------------------------------------------------------------------------------------------




----------------------------------------- Iteration    1(  12)  ---------------------------------------


    POTLOK:  cpu time    0.0496: real time    0.0496
    SETDIJ:  cpu time    0.0060: real time    0.0060
    EDDIAG:  cpu time    0.7542: real time    0.7543
  RMM-DIIS:  cpu time    4.1572: real time    4.1572
    ORTHCH:  cpu time    0.2114: real time    0.2114
       DOS:  cpu time    0.0009: real time    0.0009
    CHARGE:  cpu time    0.1470: real time    0.1470
    MIXING:  cpu time    0.0023: real time    0.0023
    --------------------------------------------
      LOOP:  cpu time    5.3305: real time    5.3330

 eigenvalue-minimisations  :  3771
 total energy-change (2. order) : 0.5458174E+00  (-0.6166944E+00)
 number of electron     344.0000004 magnetization 
 augmentation part       49.4642039 magnetization 

 Broyden mixing:
  rms(total) = 0.52617E+00    rms(broyden)= 0.52617E+00
  rms(prec ) = 0.65620E+00
  weight for this iteration     100.00

 eigenvalues of (default mixing * dielectric matrix)
  average eigenvalue GAMMA=   0.6354
  1.3608  1.3608  0.6545  0.3510  0.3510  0.2451  0.1244

 Free energy of the ion-electron system (eV)
  ---------------------------------------------------
  alpha Z        PSCENC =       507.55867208
  Ewald energy   TEWEN  =     70007.88017103
  -Hartree energ DENC   =    -88497.80943851
  -exchange      EXHF   =         0.00000000
  -V(xc)+E(xc)   XCENC  =     -3071.54528057
  PAW double counting   =     25262.09694024   -21173.66824648
  entropy T*S    EENTRO =        -0.00933166
  eigenvalues    EBANDS =     -3665.52290471
  atomic energy  EATOM  =     20126.00256125
  Solvation  Ediel_sol  =         0.00000000
  ---------------------------------------------------
  free energy    TOTEN  =      -505.01685732 eV

  energy without entropy =     -505.00752566  energy(sigma->0) =     -505.01452440


--------------------------------------------------------------------------------------------------------




----------------------------------------- Iteration    1(  13)  ---------------------------------------


    POTLOK:  cpu time    0.0498: real time    0.0498
    SETDIJ:  cpu time    0.0060: real time    0.0060
    EDDIAG:  cpu time    0.7507: real time    0.7507
  RMM-DIIS:  cpu time    4.0348: real time    4.0349
    ORTHCH:  cpu time    0.2105: real time    0.2105
       DOS:  cpu time    0.0008: real time    0.0008
    CHARGE:  cpu time    0.1473: real time    0.1473
    MIXING:  cpu time    0.0024: real time    0.0024
    --------------------------------------------
      LOOP:  cpu time    5.2039: real time    5.2064

 eigenvalue-minimisations  :  3661
 total energy-change (2. order) : 0.8183883E-01  (-0.5059887E+00)
 number of electron     344.0000004 magnetization 
 augmentation part       50.1149162 magnetization 

 Broyden mixing:
  rms(total) = 0.42758E+00    rms(broyden)= 0.42758E+00
  rms(prec ) = 0.57126E+00
  weight for this iteration     100.00

 eigenvalues of (default mixing * dielectric matrix)
  average eigenvalue GAMMA=   0.6753
  1.6107  1.6107  0.6179  0.6179  0.3553  0.2660  0.1245  0.1997

 Free energy of the ion-electron system (eV)
  ---------------------------------------------------
  alpha Z        PSCENC =       507.55867208
  Ewald energy   TEWEN  =     70007.88017103
  -Hartree energ DENC   =    -88495.28444315
  -exchange      EXHF   =         0.00000000
  -V(xc)+E(xc)   XCENC  =     -3070.73764407
  PAW double counting   =     25418.41439444   -21326.04220391
  entropy T*S    EENTRO =        -0.00374146
  eigenvalues    EBANDS =     -3672.72278470
  atomic energy  EATOM  =     20126.00256125
  Solvation  Ediel_sol  =         0.00000000
  ---------------------------------------------------
  free energy    TOTEN  =      -504.93501849 eV

  energy without entropy =     -504.93127702  energy(sigma->0) =     -504.93408312


--------------------------------------------------------------------------------------------------------




----------------------------------------- Iteration    1(  14)  ---------------------------------------


    POTLOK:  cpu time    0.0500: real time    0.0500
    SETDIJ:  cpu time    0.0060: real time    0.0060
    EDDIAG:  cpu time    0.7491: real time    0.7491
  RMM-DIIS:  cpu time    4.1037: real time    4.1038
    ORTHCH:  cpu time    0.2108: real time    0.2108
       DOS:  cpu time    0.0008: real time    0.0008
    CHARGE:  cpu time    0.1490: real time    0.1490
    MIXING:  cpu time    0.0026: real time    0.0026
    --------------------------------------------
      LOOP:  cpu time    5.2740: real time    5.2764

 eigenvalue-minimisations  :  3719
 total energy-change (2. order) : 0.1891189E+00  (-0.3054454E+00)
 number of electron     344.0000004 magnetization 
 augmentation part       50.0083704 magnetization 

 Broyden mixing:
  rms(total) = 0.33438E+00    rms(broyden)= 0.33438E+00
  rms(prec ) = 0.40674E+00
  weight for this iteration     100.00

 eigenvalues of (default mixing * dielectric matrix)
  average eigenvalue GAMMA=   0.6747
  1.8964  1.5394  0.6864  0.6864  0.3455  0.3455  0.1243  0.2538  0.1946

 Free energy of the ion-electron system (eV)
  ---------------------------------------------------
[...]


 soft charge-density along one line, spin component           1
         0         1         2         3         4         5         6         7         8         9
 total charge-density along one line
 
 pseudopotential strength for first ion, spin component:           1
  8.719  14.873   0.001  -0.001   0.000   0.001  -0.004   0.001
 14.873  25.370   0.001  -0.002   0.001   0.003  -0.007   0.002
  0.001   0.001   1.980   0.000  -0.000   5.762   0.000  -0.000
 -0.001  -0.002   0.000   1.980  -0.000   0.000   5.763  -0.000
  0.000   0.001  -0.000  -0.000   1.979  -0.000  -0.000   5.761
  0.001   0.003   5.762   0.000  -0.000  16.653   0.000  -0.001
 -0.004  -0.007   0.000   5.763  -0.000   0.000  16.657  -0.000
  0.001   0.002  -0.000  -0.000   5.761  -0.001  -0.000  16.650
 total augmentation occupancy for first ion, spin component:           1
  3.394  -0.774  -0.026   0.158  -0.018   0.004  -0.024   0.003
 -0.774   0.195   0.016  -0.100   0.009  -0.001   0.009  -0.001
 -0.026   0.016   1.211   0.012  -0.002  -0.072  -0.001  -0.000
  0.158  -0.100   0.012   0.996   0.015  -0.001  -0.055  -0.001
 -0.018   0.009  -0.002   0.015   1.221  -0.000  -0.001  -0.071
  0.004  -0.001  -0.072  -0.001  -0.000   0.004   0.000   0.000
 -0.024   0.009  -0.001  -0.055  -0.001   0.000   0.003   0.000
  0.003  -0.001  -0.000  -0.001  -0.071   0.000   0.000   0.004


------------------------ aborting loop because EDIFF is reached ----------------------------------------


    CHARGE:  cpu time    0.2175: real time    0.2175
    FORLOC:  cpu time    0.0183: real time    0.0183
    FORNL :  cpu time    0.8257: real time    0.8259
    STRESS:  cpu time    2.4713: real time    2.4721
    FORCOR:  cpu time    0.0724: real time    0.0725
    FORHAR:  cpu time    0.0309: real time    0.0316
    MIXING:  cpu time    0.0061: real time    0.0061
    OFIELD:  cpu time    0.0003: real time    0.0003

  FORCE on cell =-STRESS in cart. coord.  units (eV):
  Direction    XX          YY          ZZ          XY          YZ          ZX
  --------------------------------------------------------------------------------------
  Alpha Z   507.55867   507.55867   507.55867
  Ewald   75656.71971 81071.63263-86720.53804  -813.03049    44.12397   727.52077
  Hartree 80029.53756 85193.58108-76657.20952  -643.32006    20.87553   689.31737
  E(xc)   -1438.86626 -1441.81781 -1430.66222    -0.41232    -0.58557    -0.24206
  Local  ************************159837.05774  1454.99477   -62.79351 -1416.28228
  n-local   -22.96188   -26.06992   -54.39502     8.14058    -1.32789     1.04126
  augment   436.72449   437.44050   432.62219    -0.96236     0.39378     0.05760
  Kinetic  4065.32889  4054.23054  4068.66384    -7.30705     5.28362    -2.61297
  Fock        0.00000     0.00000     0.00000     0.00000     0.00000     0.00000
  -------------------------------------------------------------------------------------
  Total     -38.76069   -34.10710   -16.90236    -1.89693     5.96992    -1.20031
  in kB     -17.04400   -14.99771    -7.43237    -0.83412     2.62512    -0.52780
  external pressure =      -13.16 kB  Pullay stress =        0.00 kB


 VOLUME and BASIS-vectors are now :
 -----------------------------------------------------------------------------
  energy-cutoff  :      600.00
  volume of cell :     3643.60
      direct lattice vectors                 reciprocal lattice vectors
    13.771350861  0.000000000  0.000000000     0.072614518  0.000000000  0.000000000
     0.000000000  9.564481735  0.000000000     0.000000000  0.104553496  0.000000000
     0.000000000  0.000000000 27.662570434     0.000000000  0.000000000  0.036149931

  length of vectors
    13.771350861  9.564481735 27.662570434     0.072614518  0.104553496  0.036149931


 FORCES acting on ions
    electron-ion (+dipol)            ewald-force                    non-local-force                 convergence-correction
 -----------------------------------------------------------------------------------------------
   -.466E+02 -.339E+02 0.369E+03   0.464E+02 0.336E+02 -.368E+03   0.927E-01 0.881E-01 -.809E+00   0.806E-03 0.389E-03 0.664E-03
   -.162E+02 -.336E+02 -.146E+03   0.161E+02 0.337E+02 0.146E+03   0.520E-01 -.121E+00 0.217E+00   0.493E-03 0.639E-03 0.126E-03
   0.408E+02 0.122E+02 -.376E+03   -.405E+02 -.126E+02 0.375E+03   -.337E+00 0.678E+00 0.877E+00   0.139E-02 0.123E-03 -.285E-03
   0.240E+01 0.595E+01 0.181E+03   -.244E+01 -.581E+01 -.181E+03   0.867E-02 -.289E+00 -.742E+00   0.336E-03 0.776E-04 0.110E-03
   -.658E+02 0.545E+01 -.130E+03   0.654E+02 -.521E+01 0.131E+03   0.422E+00 -.245E+00 -.132E+01   -.234E-03 -.612E-04 0.483E-03
   -.467E+02 0.478E+01 0.311E+03   0.461E+02 -.421E+01 -.309E+03   0.670E+00 -.989E+00 -.229E+01   0.201E-03 -.115E-02 0.317E-03
   -.378E+03 -.714E+01 0.389E+03   0.378E+03 0.785E+01 -.391E+03   0.956E-01 -.346E+00 0.910E+00   -.111E-02 0.497E-02 0.161E-02
   -.276E+03 0.359E+02 -.168E+04   0.275E+03 -.348E+02 0.168E+04   0.126E+01 -.111E+01 0.430E+01   0.472E-02 -.384E-02 0.943E-03
   0.103E+03 -.101E+02 0.158E+04   -.102E+03 0.896E+01 -.158E+04   -.561E+00 0.607E+00 -.429E+01   -.779E-04 0.196E-02 0.602E-02
   0.232E+03 0.724E+01 -.481E+03   -.232E+03 -.732E+01 0.482E+03   0.624E-01 0.128E+00 -.132E+01   -.732E-03 0.451E-04 -.131E-02
   -.534E+02 0.138E+03 0.165E+04   0.542E+02 -.137E+03 -.165E+04   -.515E+00 -.402E+00 -.279E+01   0.592E-02 -.263E-02 0.417E-02
   0.115E+03 0.133E+03 -.468E+03   -.115E+03 -.133E+03 0.468E+03   -.596E+00 0.204E-01 -.269E+00   0.319E-02 -.281E-02 0.283E-02
   -.415E+03 0.120E+01 0.654E+03   0.416E+03 -.230E+01 -.653E+03   -.744E+00 0.140E+01 -.153E+01   0.773E-03 -.506E-02 0.101E-02
   -.167E+03 -.239E+02 -.154E+04   0.168E+03 0.234E+02 0.154E+04   -.115E+01 0.121E+00 0.337E+01   0.484E-02 0.390E-02 0.788E-03
   0.299E+03 -.116E+03 0.148E+04   -.299E+03 0.116E+03 -.148E+04   0.256E+00 -.382E+00 -.415E+01   -.605E-02 0.307E-02 0.407E-02
   0.367E+03 -.104E+03 -.500E+03   -.367E+03 0.104E+03 0.501E+03   0.211E+00 0.113E+00 -.642E+00   -.204E-02 0.278E-02 -.199E-02
   -.121E+02 0.869E+00 0.155E+03   0.116E+02 -.807E+00 -.155E+03   0.572E+00 -.214E+00 0.118E+00   0.130E-02 -.436E-03 0.161E-02
   0.122E+02 -.405E+02 -.664E+03   -.126E+02 0.404E+02 0.661E+03   0.450E+00 0.355E+00 0.235E+01   0.230E-02 -.141E-03 0.249E-03
   0.171E+03 -.715E+01 0.135E+03   -.170E+03 0.694E+01 -.136E+03   -.117E+01 0.544E+00 0.741E+00   -.101E-02 -.602E-04 0.534E-03
   0.134E+03 -.107E+02 -.599E+03   -.133E+03 0.108E+02 0.596E+03   -.777E+00 -.636E-01 0.315E+01   0.871E-04 0.197E-02 -.205E-02
   0.125E+03 -.617E+02 -.146E+03   -.125E+03 0.614E+02 0.146E+03   -.217E+00 0.274E+00 0.101E+00   -.335E-03 0.175E-03 -.616E-03
   0.117E+03 -.550E+02 0.455E+03   -.116E+03 0.551E+02 -.452E+03   -.827E+00 -.221E+00 -.268E+01   -.177E-03 -.188E-02 0.177E-02
   -.102E+03 0.640E+02 -.165E+03   0.102E+03 -.636E+02 0.165E+03   0.143E+00 -.413E+00 0.606E+00   0.740E-03 0.138E-04 0.124E-02
   -.100E+03 0.599E+02 0.509E+03   0.996E+02 -.594E+02 -.506E+03   0.448E+00 -.492E+00 -.275E+01   -.129E-03 -.422E-03 0.232E-03
   0.833E+02 -.128E+02 0.138E+03   -.842E+02 0.123E+02 -.138E+03   0.819E+00 0.820E+00 -.352E+00   -.787E-03 -.373E-03 0.768E-03
   0.450E+02 -.371E+02 -.537E+03   -.455E+02 0.368E+02 0.534E+03   0.238E+00 0.271E-01 0.234E+01   0.783E-03 0.114E-02 -.767E-03
   -.130E+03 -.541E+01 -.448E+03   0.130E+03 0.542E+01 0.446E+03   0.181E+00 -.285E-01 0.230E+01   -.630E-04 0.374E-04 0.931E-04
   -.166E+03 0.724E+01 0.169E+03   0.165E+03 -.704E+01 -.170E+03   0.433E+00 -.392E+00 0.280E+00   -.175E-03 -.118E-03 0.928E-04
   -.150E+03 -.557E+01 0.465E+03   0.150E+03 0.554E+01 -.461E+03   0.642E+00 -.705E-01 -.260E+01   -.800E-03 0.181E-03 0.102E-02
   -.199E+03 -.148E+01 -.179E+03   0.198E+03 0.166E+01 0.179E+03   0.673E+00 -.208E+00 0.282E+00   0.843E-05 -.127E-02 0.173E-02
   0.819E+02 0.151E+01 0.152E+03   -.822E+02 -.107E+01 -.153E+03   0.295E-01 -.116E+00 -.388E-01   0.686E-04 0.669E-03 0.115E-02
   0.136E+03 0.394E+02 -.543E+03   -.136E+03 -.390E+02 0.540E+03   -.792E+00 -.463E+00 0.253E+01   0.139E-02 -.104E-02 -.740E-03
   0.708E+02 -.546E+01 -.185E+03   -.712E+02 0.556E+01 0.184E+03   0.383E+00 -.898E-01 0.679E+00   -.258E-03 -.252E-03 0.478E-04
   0.362E+02 -.666E+00 0.488E+03   -.368E+02 0.604E+00 -.485E+03   0.602E+00 0.280E-01 -.250E+01   -.886E-05 -.819E-03 0.106E-02
   0.132E+03 0.559E+01 0.138E+03   -.131E+03 -.588E+01 -.138E+03   -.745E+00 0.658E+00 -.412E+00   -.107E-02 0.255E-03 0.182E-02
   0.117E+03 0.361E+02 -.515E+03   -.116E+03 -.357E+02 0.513E+03   -.728E+00 -.352E+00 0.240E+01   0.253E-03 0.169E-03 -.996E-03
   0.128E+03 0.905E+01 0.159E+03   -.128E+03 -.869E+01 -.159E+03   -.148E-01 -.391E+00 -.500E+00   0.397E-04 0.470E-03 0.169E-02
   0.493E+02 0.767E+01 -.436E+03   -.498E+02 -.779E+01 0.433E+03   0.529E+00 0.137E+00 0.216E+01   -.630E-03 -.148E-02 -.138E-02
   0.126E+03 0.388E+02 0.411E+03   -.126E+03 -.386E+02 -.408E+03   0.173E+00 -.488E+00 -.285E+01   -.391E-03 0.174E-02 0.211E-02
   0.122E+03 0.379E+02 -.170E+03   -.122E+03 -.375E+02 0.171E+03   -.151E+00 -.385E+00 -.675E+00   -.233E-03 -.145E-04 -.155E-02
   -.993E+02 -.109E+01 0.473E+03   0.996E+02 0.107E+01 -.469E+03   -.475E+00 0.396E-01 -.308E+01   0.544E-03 -.365E-03 0.880E-03
   -.151E+03 0.584E+00 -.149E+03   0.150E+03 -.613E+00 0.150E+03   0.289E+00 0.615E-01 -.431E+00   0.100E-03 0.113E-02 0.109E-02
   0.131E+03 0.286E+02 0.440E+03   -.130E+03 -.289E+02 -.437E+03   -.211E+00 0.331E+00 -.251E+01   -.376E-03 -.284E-03 0.172E-02
   0.144E+03 0.249E+02 -.201E+03   -.143E+03 -.246E+02 0.200E+03   -.547E+00 -.328E+00 0.272E+00   -.775E-03 -.946E-03 -.729E-03
   0.702E+02 -.315E+02 -.486E+03   -.708E+02 0.310E+02 0.483E+03   0.702E+00 0.502E+00 0.355E+01   -.154E-03 -.146E-03 -.127E-02
   0.130E+03 -.156E+01 0.176E+03   -.130E+03 0.138E+01 -.176E+03   0.306E+00 0.278E-01 0.126E+00   -.133E-02 -.414E-03 0.690E-03
   0.337E+02 0.111E+01 0.117E+03   -.335E+02 -.109E+01 -.118E+03   -.136E+00 -.110E+00 0.292E+00   -.150E-03 0.725E-03 0.105E-02
   0.843E+01 0.938E+01 -.439E+03   -.864E+01 -.937E+01 0.435E+03   0.189E+00 -.683E-02 0.336E+01   -.131E-02 0.101E-03 -.111E-02
   -.418E+02 -.384E+00 0.426E+03   0.421E+02 0.715E+00 -.423E+03   -.268E-01 -.261E+00 -.275E+01   -.273E-03 0.175E-02 0.192E-02
   -.724E+02 -.531E+01 -.155E+03   0.723E+02 0.495E+01 0.155E+03   0.579E-01 0.370E+00 -.296E-01   0.858E-04 -.212E-03 0.655E-03
   0.505E+02 -.303E+01 0.404E+03   -.505E+02 0.240E+01 -.401E+03   -.138E-01 0.155E+00 -.313E+01   -.105E-03 -.322E-03 0.166E-02
   0.433E+02 0.937E+00 -.163E+03   -.430E+02 -.118E+01 0.163E+03   -.292E+00 0.223E+00 -.628E+00   -.329E-03 0.109E-02 -.696E-03
   -.722E+02 -.213E+01 0.154E+03   0.723E+02 0.236E+01 -.154E+03   0.656E-01 0.710E-01 0.587E-01   0.633E-03 0.124E-02 0.146E-02
   -.668E+02 -.169E+00 -.423E+03   0.671E+02 0.484E+00 0.420E+03   -.332E+00 -.330E+00 0.299E+01   -.128E-02 -.108E-02 -.769E-03
   0.399E+02 0.120E+01 0.421E+03   -.392E+02 -.108E+01 -.417E+03   -.824E+00 -.275E+00 -.316E+01   -.158E-03 -.302E-03 0.178E-02
   0.231E+02 -.453E+01 -.138E+03   -.225E+02 0.461E+01 0.139E+03   -.613E+00 -.677E-01 -.502E+00   -.245E-03 -.938E-03 -.642E-03
   -.975E+02 0.313E+00 0.124E+03   0.970E+02 -.479E+00 -.125E+03   0.410E+00 0.210E+00 0.126E+00   0.112E-02 -.159E-02 0.472E-04
   -.940E+02 -.242E+01 -.453E+03   0.931E+02 0.188E+01 0.450E+03   0.838E+00 0.565E+00 0.363E+01   -.172E-02 0.130E-02 -.113E-02
   0.258E+02 -.962E+01 -.414E+03   -.251E+02 0.957E+01 0.412E+03   -.736E+00 0.361E-01 0.258E+01   -.734E-03 0.220E-03 -.130E-02
   0.489E+02 -.512E+01 0.156E+03   -.483E+02 0.493E+01 -.156E+03   -.586E+00 0.595E+00 0.113E+00   0.541E-03 -.107E-02 0.649E-03
   -.141E+03 -.431E+02 0.504E+03   0.140E+03 0.424E+02 -.501E+03   0.818E+00 0.337E-01 -.326E+01   0.966E-03 0.418E-03 0.170E-02
   -.145E+03 -.441E+02 -.145E+03   0.145E+03 0.436E+02 0.146E+03   0.291E+00 0.572E+00 -.750E+00   0.103E-03 0.147E-03 0.138E-02
   -.159E+03 0.395E+01 0.153E+03   0.158E+03 -.404E+01 -.154E+03   0.724E+00 0.500E+00 0.350E+00   0.327E-03 0.462E-03 0.797E-03
   -.131E+03 0.386E+01 -.461E+03   0.130E+03 -.327E+01 0.458E+03   0.367E+00 -.484E+00 0.324E+01   -.555E-03 -.960E-04 -.267E-03
 -----------------------------------------------------------------------------------------------
   -.416E+00 -.174E+00 0.527E+01   0.284E-13 0.902E-13 0.114E-11   0.394E+00 0.147E+00 -.533E+01   0.826E-02 0.171E-02 0.383E-01
 
 
 POSITION                                       TOTAL-FORCE (eV/Angst)
 -----------------------------------------------------------------------------------
      8.57631      8.29685     10.39845        -0.098021     -0.153945      0.015590
      8.56750      3.75734     15.11701         0.002111     -0.073150      0.089522
      8.49631      6.05333     17.31467        -0.034240      0.321412     -0.023121
      8.51616      0.79995     12.43874        -0.031284     -0.145959     -0.245930
     13.45539      6.09750     15.32276         0.043610     -0.004535     -0.029074
     13.49094      1.15316     10.44749        -0.012200     -0.412322     -0.052366
     10.03344      3.28428     12.67411        -0.003921      0.376086     -0.544764
      9.90990      8.58080     17.19780         0.208729     -0.018546     -0.045020
      7.12524      5.81577     10.15765        -0.169932     -0.492467      0.869220
      7.06498      1.26158     14.93906        -0.108151      0.051412     -0.090444
      8.51222      3.28036     10.20450         0.257878      0.099863      0.694865
      8.50933      8.36321     14.88466         0.011071     -0.059887      0.069063
     10.22263      8.06723     12.77991         0.300383      0.291764     -0.447026
     10.15698      3.79167     17.43460         0.490064     -0.420038     -0.329215
      5.42664      8.10481     10.20639         0.317647      0.056664      0.950158
      5.38847      3.54791     14.96874         0.251998      0.017865      0.239819
      8.52843      5.75423     12.65640         0.122710     -0.151990     -0.058703
      8.52298      1.40023     17.21314         0.066229      0.296372      0.242881
      3.84829      7.97317     12.47259        -0.362562      0.337521     -0.343403
      3.86632      3.71558     17.14825         0.050129      0.016923     -0.013208
      3.82514      5.68954     14.91163        -0.029442     -0.019039     -0.040969
      3.90063      0.73891     10.00000         0.483941     -0.137678      0.351371
     10.13264      6.06113     14.94701         0.024741      0.034328     -0.024761
     10.19112      1.10470     10.13736        -0.216164      0.042994      0.394451
      6.82945      7.99424     12.66670        -0.077562      0.243581     -0.344903
      6.90347      3.69055     17.35749        -0.346962     -0.252722     -0.354521
     11.51035      6.17347     17.25517        -0.124941     -0.016927      0.079639
     11.66772      1.05372     12.57547        -0.049932     -0.195668     -0.671874
     11.73919      3.33868     10.41199        -0.301644     -0.095140      0.554503
     11.73079      8.30294     15.28165        -0.047410     -0.031060      0.049344
      7.18522      3.24644     12.75390        -0.223933      0.326015     -0.478200
      7.15802      8.60079     17.25102        -0.183795     -0.063364     -0.055016
      6.87631      5.97687     14.91486        -0.027981      0.011835      0.007760
      6.87795      0.97560     10.08695        -0.060886     -0.034937      0.173161
      5.51084      5.55012     12.48419        -0.052578      0.373971     -0.278552
      5.41813      1.32522     17.17190         0.086808      0.085578     -0.026307
      3.51249      3.50019     12.83519        -0.133447     -0.029932     -0.580752
      3.26479      8.75552     17.29368         0.020685      0.017987     -0.013710
      3.46798      5.87237     10.40868         0.078839     -0.214209     -0.099918
      3.36904      1.26541     15.18572         0.020568     -0.000715      0.019475
     11.91771      8.21633     10.24534        -0.168145      0.025278      0.683289
     11.91561      3.63277     15.07033        -0.260772      0.033534      0.224459
      5.24135      3.36543     10.32679         0.205528      0.069850      0.112161
      5.16819      8.32983     15.16726         0.019808      0.002308      0.009074
      5.30607      6.15561     17.36090         0.089681     -0.031454      0.081866
      5.28930      0.99064     12.60849         0.121298     -0.150007     -0.326018
      1.60538      5.84491     12.85122         0.068139     -0.096172     -0.490107
      1.57133      1.76366     17.56049        -0.023080      0.006967      0.022083
     13.72038      5.67134     10.18293         0.208096      0.072121      0.664785
     13.69499      1.07508     15.13511        -0.007420      0.013133     -0.003850
      1.63456      8.33987     10.36453        -0.029809     -0.475468      0.163007
      1.59415      3.75676     15.20100         0.017354     -0.018231     -0.010193
     13.76831      3.16119     12.53308         0.125325      0.307349     -0.365050
      0.00402      8.40976     17.30595        -0.000117     -0.015413     -0.015590
      1.99440      3.17314     10.17666        -0.127305     -0.158898      0.686801
      1.83492      8.08252     14.95570         0.007528      0.013771      0.008477
     13.48051      8.37930     12.86886        -0.078203      0.043595     -0.429324
     13.29911      4.09359     17.72005        -0.076730      0.027563     -0.037483
      2.03110      6.06828     17.20649        -0.045148     -0.008982      0.034003
      2.02729      0.87737     12.46815        -0.013016      0.410173     -0.356557
     10.07171      5.79402     10.14663         0.128277     -0.624243      0.180504
     10.11892      1.22533     14.90208         0.065015      0.055750     -0.037898
     11.97051      5.66181     12.67660        -0.233343      0.411450     -0.393154
     11.81975      1.34578     17.49884        -0.134115      0.108082     -0.014351
 -----------------------------------------------------------------------------------
    total drift:                               -0.014264     -0.025180     -0.012452


--------------------------------------------------------------------------------------------------------



  FREE ENERGIE OF THE ION-ELECTRON SYSTEM (eV)
  ---------------------------------------------------
  free  energy   TOTEN  =      -504.59991685 eV

  energy  without entropy=     -504.59828784  energy(sigma->0) =     -504.59950960
 


--------------------------------------------------------------------------------------------------------


    POTLOK:  cpu time    0.0614: real time    0.0618


--------------------------------------------------------------------------------------------------------


     LOOP+:  cpu time  172.1251: real time  172.2850
    4ORBIT:  cpu time    0.0000: real time    0.0000

 total amount of memory used by VASP on root node    70204. kBytes
========================================================================

   base      :      30000. kBytes
   nonlr-proj:       6855. kBytes
   fftplans  :       3890. kBytes
   grid      :       8098. kBytes
   one-center:         46. kBytes
   wavefun   :      21315. kBytes
 
  
  
 General timing and accounting informations for this job:
 ========================================================
  
                  Total CPU time used (sec):      187.787
                            User time (sec):      183.969
                          System time (sec):        3.819
                         Elapsed time (sec):      187.945
  
                   Maximum memory used (kb):      145216.
                   Average memory used (kb):           0.
  
                          Minor page faults:        37723
                          Major page faults:            0
                 Voluntary context switches:         3446
